35
 energy: -49.720326516008 gnorm: 0.116575677203 xtb: 6.4.1 (79825abcba525fcdf90b791dcacef51065a7a4e7)
C         3.63343255390061   -1.35097256167272   -2.41091542163936
C         2.95491453352804   -0.19932593959017   -3.13810715230948
N         4.02655994551857    0.83664660530798   -3.20306104837333
C         3.76077775016025    1.57407484373259   -2.16364398455099
C         4.45999686563618    2.88067498965943   -1.96105177896454
C         3.61517461708364    3.97190820077406   -2.62948847500402
N         3.97843152993564    5.21355512342825   -2.70696187422632
N         2.46600029559334    3.57689104318174   -3.29384504188518
C         1.28559655256952    2.88773966140712   -2.73740606299227
C         0.08607452396238    3.76205177114732   -3.18613433580514
O        -0.07437495495417    5.14517230900210   -2.87041375253194
C         1.02427746875901    1.43269684680550   -3.18555143845014
C         1.81106889528119    0.44811813475224   -2.27367661196318
C         0.88850865562137   -0.55604923353727   -1.51550311688595
N        -0.28970676621989    0.01273752703362   -0.84260490562382
N         2.77210696073923    1.06714831172758   -1.33945799927019
H         4.59528210775485   -1.48177370654207   -2.92083128029761
H         2.97380501301030   -2.22239689264223   -2.34270086289794
H         3.96978530898339   -1.14829189682406   -1.39202630086253
H         2.67225653592257   -0.50984297188388   -4.15319239480189
H         5.44232452746431    2.81450300223792   -2.43573142270108
H         4.52862022025803    3.14974813063549   -0.90518034936329
H         4.90955973005419    5.32459123040389   -2.28640412289238
H         2.31341201996476    4.14463706326099   -4.13067648373625
H         1.30441344867144    3.01545812516666   -1.64658352885148
H        -0.80608668671836    3.27858225286470   -2.77511950322162
H         0.02408018284640    3.65321109639817   -4.27619384731828
H         0.80492981577926    5.53149496097684   -3.04489925011617
H         1.36968086002414    1.27247524901001   -4.21564645601256
H        -0.05937738476645    1.25355883644005   -3.18039431690032
H         1.56299162871607   -0.97807606128078   -0.77091635882275
H         0.49331776012711   -1.38303780423955   -2.11849130856116
H        -0.65173357458035   -0.68534892181388   -0.19761774516878
H        -1.02938515368160    0.24709692783422   -1.50664303477863
H         2.42313123405008    1.66604832601845   -0.59394596536822
