35
 energy: -49.720430589248 gnorm: 0.105886189776 xtb: 6.4.1 (79825abcba525fcdf90b791dcacef51065a7a4e7)
C         3.59131528317473   -1.44373082287802   -2.82909549744994
C         3.07974500347443   -0.03869268239212   -3.11131542705246
N         4.10133576462546    1.02985836631855   -2.91023595406437
C         3.75316882823401    1.69637463771037   -1.84752044470426
C         4.30030263605299    3.07378724537427   -1.64618980612101
C         3.63547665262058    3.87951030225448   -2.76874891154703
N         4.23785751163143    4.78773131136401   -3.47011665162658
N         2.39911566109606    3.57433651413056   -3.31307445502993
C         1.21746353795332    2.98025043825693   -2.65834782071348
C        -0.04357818608625    3.69419245164057   -3.21033732331657
O        -0.09518947217627    5.04774059154100   -2.75901740584237
C         0.99650920785078    1.49092624791544   -3.00383903094366
C         1.89528022939823    0.49076412555615   -2.22163825953176
C         0.91543572503001   -0.59017745767231   -1.66867662778545
N        -0.04239089058531   -0.05347237495154   -0.68938209412312
N         2.68339964077883    1.14989176358481   -1.16146117178924
H         4.68452769879444   -1.46032145271103   -2.91209574217497
H         3.11486186562820   -2.23600481312967   -3.41598231465933
H         3.39154509534374   -1.62890182991476   -1.77166879419400
H         2.82414336807451   -0.10686406268315   -4.17749311859765
H         5.34301634539031    3.11829570871778   -1.97089623495055
H         4.16534275291058    3.49041215110424   -0.64609805974246
H         5.20474066766304    5.01446116862205   -3.20567744304590
H         2.20765049564063    4.25924347524872   -4.04802285067495
H         1.20237985403099    3.11573864881348   -1.56840502010740
H        -0.95432727073913    3.21442697703992   -2.83752532167720
H         0.03737307235422    3.72489160068808   -4.30414891121336
H         0.79877628885936    5.31687135981298   -2.47395406429879
H         0.91588868884261    1.35466860651649   -4.09057928463522
H        -0.00788661464392    1.29993579518000   -2.60242084728654
H         1.52619220259597   -1.41591654753811   -1.30456835487745
H         0.42554520798683   -1.16841368460662   -2.46198037834086
H        -0.31138135073677   -0.83488716049472   -0.09656542540756
H        -0.90649529205269    0.16166710090679   -1.18941576618769
H         2.30750582805321    1.73073890328295   -0.41475245579050
