35
 energy: -49.716624620587 gnorm: 0.121494696567 xtb: 6.4.1 (79825abcba525fcdf90b791dcacef51065a7a4e7)
C         3.66861610875795   -1.44818880454370   -2.69939097603370
C         3.11738308810012   -0.13827379055038   -3.24321931432897
N         4.17106053997565    0.90052028553871   -3.05203171134129
C         3.83711023313395    1.61407669971104   -2.01562308200048
C         4.37245245899507    2.97957130716862   -1.72238582184646
C         3.60913391101741    3.87386393530052   -2.70671688898802
N         4.18893347704341    4.77940423070181   -3.43023194622232
N         2.25657636509628    3.75803552063933   -2.98090966142579
C         1.11966211901576    2.95209604374937   -2.49532288441899
C        -0.08418071064870    3.78907526026459   -3.00015955248070
O        -0.18468567540856    5.15727641643902   -2.60472270986246
C         1.15063959354659    1.54793745319474   -3.13847961746733
C         1.94625874616630    0.45136803806282   -2.37396842605313
C         0.88626839281817   -0.58771630048782   -1.89332225925521
N        -0.06350427166616    0.01499443098033   -0.94507459660833
N         2.79177776895394    1.03858966864133   -1.31575045760253
H         4.05784520942769   -1.12797972861261   -1.72561248895302
H         4.54781537484146   -1.77564933822463   -3.26412129311407
H         2.89752619536833   -2.21919489016872   -2.75698984054156
H         2.83988005932211   -0.02984299609353   -4.30055050702518
H         5.43050481887583    3.02729567898787   -1.99241306990227
H         4.08975554860872    3.31219392711357   -0.72167675103889
H         5.20512778926431    4.85131628745877   -3.29467628038248
H         2.03150210503075    4.51534610441435   -3.63031542724356
H         1.21228176058231    3.00613874018200   -1.40213449104111
H        -0.99652405447856    3.29895358563470   -2.64514129816142
H        -0.03841414243348    3.82655168631020   -4.09579647646086
H        -0.55437999299514    5.33303390569890   -1.71854966025997
H         1.35468248695720    1.67471180716265   -4.21009753384788
H         0.09569453442778    1.29414040670474   -2.96788398481359
H         1.38699696732749   -1.38103596540050   -1.33892334116717
H         0.34731538267120   -1.03893482060717   -2.73570709036891
H         0.42688419932552    0.01059999574882   -0.05406596828102
H        -1.01108015194405   -0.36381591418472   -0.90510267156689
H         2.37859377821228    1.49716067566443   -0.50627835033332
