35
 energy: -49.723285482708 gnorm: 0.101876765841 xtb: 6.4.1 (79825abcba525fcdf90b791dcacef51065a7a4e7)
C         3.48225908283766   -1.52274247826606   -2.53535838845908
C         2.87348554787883   -0.24115150366004   -3.08527092099424
N         3.91531799208968    0.80525312822832   -3.29858875781995
C         3.83196034350175    1.63976997135901   -2.30286713291256
C         4.47076808421134    2.97342013528314   -2.07824110744994
C         3.71575105192350    3.94399452689434   -2.99435073827012
N         4.23499630783212    4.94321105187815   -3.63590785289939
N         2.50158132796525    3.47372476712772   -3.46620677536357
C         1.31254926735815    3.06180903651444   -2.69521053529816
C         0.14346553070902    3.86394094052292   -3.32327063294932
O        -1.03803280542812    3.75965192039224   -2.52851818844354
C         1.00316268697755    1.55964648495766   -2.87976179671625
C         1.89172403885314    0.52842121008237   -2.12677784247533
C         1.11501980018634   -0.31284979188361   -1.06692399512154
N         0.25915280412669    0.57658766666254   -0.26636502364936
N         2.87966466809356    1.30871467673860   -1.35562780998957
H         3.77997236962408   -1.46445797504405   -1.48167561231052
H         4.32789721894712   -1.88298524894556   -3.13055866200818
H         2.70901616185980   -2.29352598684793   -2.55368416952843
H         2.40696328283385   -0.51414735511417   -4.04158920137963
H         5.53551277263999    2.97110815199668   -2.32518350225011
H         4.29765598405260    3.29197058875408   -1.04841985176030
H         5.26167016014796    4.92805212022878   -3.59222056964941
H         2.28430893622251    3.95174237240057   -4.34381573685837
H         1.37806749853957    3.36677596286199   -1.64199525483198
H        -0.14102249593885    3.36545855969681   -4.25558468001103
H         0.50512283722715    4.89478902863847   -3.42562076300314
H        -1.12887790357969    4.49876101231085   -1.89738256141319
H         1.10581126890849    1.38525955717582   -3.95917028440285
H        -0.08015668696172    1.42850721303693   -2.75467585687469
H         1.83246197345537   -0.82241900458557   -0.42422709769781
H         0.56844414508371   -1.02261757278646   -1.70030023475395
H         0.43033746519059    1.51946487108818   -0.60706273098581
H        -0.72553845731847    0.34779274671167   -0.41138601857993
H         2.55534707347025    1.81232101797889   -0.53255294676034
