39
 energy: -52.292455113431 gnorm: 0.085516993023 xtb: 6.4.1 (79825abcba525fcdf90b791dcacef51065a7a4e7)
C         3.70507000000000    1.70416000000000    3.85725000000000
C         3.57779000000000    2.12751000000000    2.38801000000000
N         4.59390000000000    1.41438000000000    1.63366000000000
C         4.63701000000000    1.27769000000000    0.27081000000000
N         5.80881000000000    1.11062000000000   -0.26699000000000
C         5.58921000000000    0.83227000000000   -1.68512000000000
C         4.10030000000000    0.57579000000000   -1.87020000000000
C         3.41145000000000    1.21006000000000   -0.66107000000000
C         2.80402000000000    2.60138000000000   -1.00572000000000
N         2.29056000000000    3.47494000000000    0.06947000000000
C         3.35683000000000    4.16914000000000    0.78335000000000
C         3.72938000000000    3.66575000000000    2.20700000000000
N         5.09794000000000    4.15031000000000    2.50755000000000
N         2.42276000000000    0.30340000000000   -0.06199000000000
C         1.33175000000000   -0.28432000000000   -0.64336000000000
C         0.86877000000000   -0.00199000000000   -2.05083000000000
N         0.62500000000000   -1.12498000000000    0.03528000000000
H         3.54323000000000    0.62764000000000    3.95800000000000
H         2.95772000000000    2.21238000000000    4.47353000000000
H         4.69645000000000    1.92044000000000    4.26738000000000
H         2.57940000000000    1.80887000000000    2.07878000000000
H         5.53466000000000    1.51200000000000    2.01106000000000
H         6.15840000000000   -0.06173000000000   -1.96726000000000
H         5.94289000000000    1.66545000000000   -2.29648000000000
H         3.92189000000000   -0.50474000000000   -1.92661000000000
H         3.77384000000000    1.00244000000000   -2.82719000000000
H         1.94043000000000    2.44262000000000   -1.66133000000000
H         3.50768000000000    3.17558000000000   -1.62171000000000
H         1.64250000000000    2.97135000000000    0.67286000000000
H         3.03913000000000    5.21549000000000    0.88760000000000
H         4.25582000000000    4.22383000000000    0.15624000000000
H         3.04440000000000    4.15096000000000    2.91560000000000
H         5.74252000000000    3.78642000000000    1.80152000000000
H         5.42245000000000    3.78439000000000    3.40040000000000
H         2.79335000000000   -0.17950000000000    0.75027000000000
H         1.62672000000000    0.47561000000000   -2.66611000000000
H        -0.01347000000000    0.64353000000000   -2.01250000000000
H         0.59308000000000   -0.94367000000000   -2.53626000000000
H         1.00107000000000   -1.22253000000000    0.97978000000000
39
 energy: -52.263384312532 gnorm: 0.129251752307 xtb: 6.4.1 (79825abcba525fcdf90b791dcacef51065a7a4e7)
C         3.66496269027441    1.64651494203450    3.83425102322157
C         3.56715034321790    2.15786418446832    2.39097480618519
N         4.54038210025886    1.38114271147259    1.64290967488772
C         4.63552653889008    1.25766590496592    0.28143855881557
N         5.79548281127747    1.20043287709763   -0.30292619616354
C         5.51955050012617    0.87112826048816   -1.70014320518665
C         4.03146609897768    0.62129352590422   -1.90033549438567
C         3.39655762724670    1.19515081786052   -0.63290225875453
C         2.78463685032646    2.56552295650504   -1.04661611619760
N         2.40329477937426    3.33723319705126    0.15414332806158
C         3.41022877017173    4.16787339067064    0.80574963020527
C         3.81919917354939    3.68472951897594    2.22641478382229
N         5.13224479255544    4.33782386208407    2.44427737885336
N         2.38416434403648    0.34100694791760    0.00265655454437
C         1.36806689814893   -0.34901627873151   -0.60159709526284
C         0.97846014955954   -0.03542663790107   -2.02458709254557
N         0.62150966548221   -1.25921555744250   -0.07155319415847
H         2.97624147163957    0.80735022953071    3.96349387617270
H         3.40405578379605    2.45157068644520    4.52738409301714
H         4.67699477536543    1.31939759378441    4.09232707107935
H         2.53376649966646    2.10332927044752    2.04014583312752
H         5.49096168245621    1.30726975027808    2.00058411239517
H         6.07694452077923   -0.02265162522791   -2.00557018651466
H         6.00114407607721    1.65992065794453   -2.28230612644581
H         3.94081779148818   -0.46939236200781   -1.96921536841315
H         3.68618906871728    1.11489771936466   -2.81770938018218
H         1.86871761132910    2.30937755845381   -1.59094905145863
H         3.50214439555182    3.17803531563478   -1.60723916394775
H         1.56732024211314    2.99966752024071    0.62833749579142
H         3.01773685835309    5.18435362869285    0.94491746197477
H         4.26976394375738    4.16565954897358    0.12337485228815
H         3.13031584027177    4.21547443610208    2.89760020336389
H         5.71081837640542    3.63496704836405    1.97777703141177
H         5.52901721347594    4.21438246967662    3.37364230728250
H         2.59627830026247    0.08585095297335    0.96192642613011
H         1.75470849049677    0.51271236351153   -2.55197837832458
H         0.09565000812786    0.61003505602758   -2.00138979464163
H         0.74473651039841   -0.96463997804501   -2.55406257943766
H         0.87492746159664   -1.51293525063117    0.88470546280423
39
 energy: -52.270309155842 gnorm: 0.109169783550 xtb: 6.4.1 (79825abcba525fcdf90b791dcacef51065a7a4e7)
C         3.60672924125654    1.73473017174378    3.87718079312137
C         3.52048796179456    2.11960695531886    2.39443878833021
N         4.57949056071479    1.50457355028025    1.61320568216000
C         4.58969540785796    1.29414082141442    0.25913163124948
N         5.75368612520319    1.18222181638061   -0.30907265142109
C         5.51056690161545    0.84466592031500   -1.71040937311463
C         4.01885079569644    0.59192202250947   -1.87712206171744
C         3.35027508204673    1.22060263267583   -0.65377616277195
C         2.78499772241412    2.63014235133298   -0.99609948263318
N         2.38807637079442    3.56672932295267    0.07536679080436
C         3.46035130341652    4.20741066314371    0.82917303399474
C         3.78405680275199    3.64588377231717    2.24298934997589
N         5.13812174847151    4.18458245437457    2.51574747634075
N         2.40780503597650    0.23207506205032   -0.11248106962424
C         1.37178588513162   -0.44737618473654   -0.69447667068707
C         0.90526426979077   -0.10750803953185   -2.08799008811000
N         0.73692975764541   -1.34443967027253   -0.01698735309778
H         2.74478021485893    1.14738104065012    4.20475204022389
H         3.73908924115363    2.64368900923666    4.47123069140106
H         4.50637922418318    1.14318516016472    4.07345192495328
H         2.51981003590688    1.88034348811362    2.02656125294288
H         5.55467678803329    1.43242568199116    1.89745252990864
H         6.16253348590614    0.03244499756043   -2.05399773824920
H         5.77123898850375    1.77362693858521   -2.22238689411063
H         3.83532634775382   -0.48833601883327   -1.83332013873804
H         3.69956877494623    0.97357741128726   -2.85530115199350
H         1.87093822698058    2.37842156588852   -1.54559811169838
H         3.57262839688248    3.18618474510768   -1.52025733047856
H         1.64226828693532    3.17088402625705    0.64522723502524
H         3.21670259411483    5.25253570955636    1.06369084499916
H         4.32663467916180    4.11145638059085    0.16224961758253
H         3.22076076491726    4.19701256272186    3.00829642410580
H         5.91505927202148    3.72823927475286    2.03149893374981
H         5.42379730184066    4.22385298488386    3.49208379499327
H         2.66450899155854   -0.13238066573783    0.79942391869964
H         1.75508613865379    0.30759979638426   -2.62338498865132
H         0.10417954878813    0.63383662452871   -2.01598995997711
H         0.49934227169122   -0.99193918279288   -2.58940543222954
H         1.07808443685702   -1.50763220585700    0.93169940468655
39
 energy: -52.264361617414 gnorm: 0.122874748323 xtb: 6.4.1 (79825abcba525fcdf90b791dcacef51065a7a4e7)
C         3.63275254453609    1.80528460340539    3.83854874918667
C         3.53028438967293    2.19787951592286    2.35886599059285
N         4.56480794528046    1.49843899054647    1.61682709459548
C         4.57591495759993    1.28352041756336    0.26346489107915
N         5.74142774692481    1.21158998473234   -0.30807891281498
C         5.54159998955066    0.94223157344275   -1.73086155935366
C         4.07411846398490    0.59073250061818   -1.93045092201434
C         3.37397227476177    1.15192784299334   -0.69203940401917
C         2.82445253333493    2.57080237672121   -1.02120368991674
N         2.46171720430267    3.54648463226894    0.02724703457993
C         3.54027976876875    4.20602049800949    0.75538520865148
C         3.71216229834533    3.73796955533174    2.22859903638633
N         5.08323865050659    4.05749669770708    2.69350460305319
N         2.35629538088784    0.36962686499270    0.02264645924221
C         1.41247445618707   -0.36617049482115   -0.64181791044770
C         0.79081068827456   -0.10529836708095   -1.99108153468105
N         0.89216634316601   -1.42177510670057   -0.11103041273268
H         2.63488186417718    1.45395769761342    4.11434135470903
H         3.99450928923961    2.58851367059403    4.51108492223103
H         4.32076639662309    0.95949556035824    3.93392057586030
H         2.56199515026624    1.77775497846365    2.07629118116028
H         5.53699378601218    1.35785652950725    1.88530619215420
H         6.21468660564314    0.13468208862643   -2.04332668677086
H         5.71347838427542    1.91654655532173   -2.19368725552632
H         3.85992825068010   -0.48475628592053   -1.93237219151504
H         3.61579181930421    1.07273547397063   -2.80340338601431
H         1.89095094607327    2.31825572768801   -1.53657912698076
H         3.55952331221717    3.10056509473576   -1.64032329829968
H         1.66894682101171    3.26449723799638    0.60140933848216
H         3.32540505070301    5.28316172475168    0.73972343767975
H         4.45117043565209    4.08991508201920    0.15435386388742
H         3.06023259742710    4.23224531513816    2.96168799465385
H         5.88363727245099    3.82892561953957    2.09895017166633
H         5.18165512652289    3.66508522921377    3.62769555873718
H         2.67808748898278   -0.11926297807817    0.85194265415269
H         1.57121155252226   -0.01582448492959   -2.74216631031809
H         0.06109679032392    0.70918313366775   -1.96558305526428
H         0.20908998405127   -1.01470527405768   -2.17270909410366
H         1.17722528865631   -1.64151980941448    0.84473030495418
39
 energy: -52.258377437753 gnorm: 0.123409316986 xtb: 6.4.1 (79825abcba525fcdf90b791dcacef51065a7a4e7)
C         3.51746970713062    1.65568778571646    3.81908805941638
C         3.49333879454075    2.12724615952852    2.35924493347038
N         4.48354098162317    1.35793281216558    1.62594120360358
C         4.55613376827454    1.29726424411894    0.25884493577541
N         5.70933968836141    1.27062829557876   -0.34087415441086
C         5.51109953456746    1.04433708525594   -1.77135962078674
C         4.06347351193596    0.60717745283196   -1.94502565293383
C         3.37320842098795    1.22046531437732   -0.72591939551037
C         2.82683202557235    2.63057016196150   -1.09551796703134
N         2.52922586993860    3.59571519298810   -0.01722889207966
C         3.67611612190285    4.08133126816923    0.74256696035646
C         3.68958612814257    3.66657959349503    2.24149120091485
N         5.00903721093288    4.17517820307046    2.68698130595369
N         2.43894368308575    0.30146967600212   -0.06181599606730
C         1.45803405378928   -0.49722150015456   -0.58490035855244
C         0.79874224716378    0.00065689628126   -1.84683689780325
N         0.98163456706826   -1.51054629692023    0.05772966663457
H         2.44565418103008    1.64992707738669    4.03453258738043
H         4.06878412517172    2.36319595989908    4.44527111213443
H         3.93077056119103    0.64235127308176    3.83131376528119
H         2.51656494968388    1.80905198385007    1.98695133323130
H         5.45579380981398    1.50788919290444    1.88905199630083
H         6.14361303732877    0.18305883410863   -2.01822529816102
H         5.84904738006072    1.91858890531698   -2.33217553850985
H         3.98590966720168   -0.42632295750640   -1.58667103676230
H         3.42838315808700    0.90070810724565   -2.79056463999288
H         1.87334744638040    2.51396337466716   -1.62285738184381
H         3.52932674172256    3.15599144812680   -1.75485119640395
H         1.74021474452840    3.31781556546027    0.56406050251110
H         3.63719918966284    5.17396709755760    0.63634984294418
H         4.61800605758736    3.83208411738402    0.23743315975683
H         2.86192879665809    4.04833914992669    2.85466594347430
H         5.68986911292873    4.14794379569899    1.92402398589888
H         5.29996601854029    3.87056544278643    3.61378052789237
H         2.64273465147502    0.02649635511737    0.89377518966554
H         1.55091257012919   -0.09897520681075   -2.62495814332988
H         0.43833135740125    1.01077159748140   -1.63169754562873
H        -0.09947233596925   -0.54484652308840   -2.15350453596642
H         1.51653554353415   -1.73204031892495    0.89906564328967
39
 energy: -52.268962420238 gnorm: 0.119117475640 xtb: 6.4.1 (79825abcba525fcdf90b791dcacef51065a7a4e7)
C         3.38963692890367    1.53951442671864    3.73670841693541
C         3.48773454338997    2.13965764431972    2.32805781434041
N         4.55362883005055    1.46055182181171    1.61198351108959
C         4.70236814349657    1.34917042707005    0.25427463022306
N         5.81864878274433    1.32019454437562   -0.41155890069810
C         5.47667357342132    1.02770825356720   -1.80235013961046
C         4.02750607547387    0.56896288567851   -1.88207338229773
C         3.44760638380008    1.23409844811186   -0.63302613413075
C         2.84904262230511    2.57752423127962   -1.14337366891403
N         2.51208316472592    3.53042831599116   -0.06577734052538
C         3.67602922462622    4.01446791822436    0.66866476450535
C         3.69295016016017    3.67581882982817    2.18655960676980
N         4.93644165714200    4.21511413367795    2.78737123203061
N         2.50321337265335    0.38381845202516    0.10425450677057
C         1.48033369495300   -0.32506271151374   -0.46575712533365
C         0.72700405036632    0.06790495605175   -1.71199277841233
N         1.04851005561295   -1.44625433087974    0.00669889723253
H         2.47130052230710    1.99766087042309    4.11353481032581
H         4.25170899211170    1.90676188530837    4.30113882132486
H         3.33635175253845    0.45111613786328    3.63488600405909
H         2.55963897666673    1.95382782213125    1.78212457624518
H         5.45528538281643    1.36257237008738    2.07502265256029
H         6.26354120107833    0.35772061706054   -2.16946336870247
H         5.63092326080650    1.90413326312434   -2.43569501150994
H         3.82837363165480   -0.49884672332578   -1.73145406285834
H         3.47871722823602    0.96012459655766   -2.74824859754135
H         1.92617228655612    2.41163989267917   -1.71047999717850
H         3.61296697834452    3.10022591343075   -1.73285582478664
H         1.64862748513786    3.35854798127390    0.44663417841522
H         3.64201379822338    5.10797848802196    0.57003795211286
H         4.56548108772715    3.67989930112513    0.11968372911453
H         2.79201249781305    4.06340032459094    2.68136481878446
H         5.71577923626347    3.95167860032893    2.17941373207620
H         5.06884884824920    3.92428371239374    3.75394833955008
H         2.99171133202509   -0.21960802245733    0.75812136118588
H         1.39866565793618   -0.22276006400175   -2.51545028234363
H         0.38375187895615    1.10292517727959   -1.62583158234990
H        -0.14666574885811   -0.58350115297609   -1.81581779009906
H         1.49649686401669   -1.86398598176591    0.82390937930348
39
 energy: -52.269555742624 gnorm: 0.114601738021 xtb: 6.4.1 (79825abcba525fcdf90b791dcacef51065a7a4e7)
C         3.34563019026970    1.57647955332091    3.61439725024900
C         3.51007659212423    2.08723790228026    2.17697774421826
N         4.69512616993425    1.55938036728355    1.52344757281094
C         4.71417006420532    1.26439557091724    0.18534297964418
N         5.85983959803046    1.22916556762754   -0.42821754695693
C         5.58865125348777    0.99172070298808   -1.84485877111724
C         4.14196842642765    0.51978410080791   -1.88055428420225
C         3.44724748198967    1.17828525402713   -0.68784853867638
C         2.86699786298098    2.56978246556384   -1.07588441350415
N         2.55439092060911    3.62460776344933   -0.08977987111547
C         3.63314508963950    4.21211004091259    0.69736717800301
C         3.62017936564806    3.63922597372611    2.14326136829405
N         4.81095970793058    4.15771397546611    2.85831207424886
N         2.49722652406630    0.30427531344720    0.01358122815231
C         1.44422064561398   -0.42074958749829   -0.47552619513576
C         0.60170593460508    0.10658030882540   -1.61004131637887
N         1.01970272221063   -1.45908906065789    0.16352986453331
H         2.85784577235886    2.33333584055771    4.23445609405191
H         4.33887594452840    1.42373817477960    4.04654718026352
H         2.81938786503948    0.62115695810842    3.70520309121402
H         2.62333347608966    1.92713950147211    1.55892244507490
H         5.65075799585687    1.71480642368622    1.83904274733324
H         6.39583386244569    0.37916419894232   -2.26443829733613
H         5.69507226886004    1.91779228486701   -2.41416139641862
H         4.03137620034430   -0.56422295047555   -1.75704180479230
H         3.75319121738239    0.66492990003682   -2.89653712983214
H         1.89124642896198    2.46780756590745   -1.56407198311461
H         3.65941560065941    2.97880573509856   -1.71546300018257
H         1.79765736515435    3.36367107330460    0.54024432778958
H         3.42435487542512    5.28185541615958    0.83411928620081
H         4.53712148977566    4.03484564293391    0.10083976696405
H         2.71099878005970    3.95183446594666    2.67468105213796
H         5.59796529257848    3.56031441399058    2.59352227195638
H         4.71792998803613    3.96717995255297    3.85401663004413
H         2.88112654279603   -0.20561753474049    0.80283762945314
H         1.21549417379067    0.07395523732157   -2.50634429316342
H         0.41071002080023    1.12089235647374   -1.24781998221388
H        -0.30779080197859   -0.47533208127823   -1.79060188270610
H         1.57196370868454   -1.72975291511319    0.97886645962617
39
 energy: -52.262027593769 gnorm: 0.116130244619 xtb: 6.4.1 (79825abcba525fcdf90b791dcacef51065a7a4e7)
C         3.40599624020975    1.57545746267086    3.61666346552656
C         3.48629698843987    2.11522753645775    2.18268591783543
N         4.64299667994897    1.55473662310210    1.50594850901163
C         4.73674850247344    1.35670775911267    0.15321136830347
N         5.84822088553257    1.24276031856631   -0.51154534389839
C         5.61637371869915    0.95713478050711   -1.92627517015461
C         4.16309643079132    0.51106453482368   -2.00306056399592
C         3.51955910681563    1.14120691703976   -0.76710414494400
C         2.97970955623542    2.53709844994716   -1.19556101913604
N         2.58422155068706    3.30693197754570    0.00182250144443
C         3.51592681386463    4.12589117259294    0.76974249081448
C         3.58549479838488    3.66667498969302    2.25407906760006
N         4.71920282626813    4.29368142580354    2.97494949754773
N         2.67635183179932    0.21113036162964   -0.00395538394774
C         1.45611369502175   -0.29444036823535   -0.36329601184550
C         0.56314654406814    0.16524801769516   -1.48860871056387
N         0.91143360589191   -1.30227904796821    0.23197012590740
H         3.21318708616210    2.22739337361225    4.47284232689763
H         4.32399503810337    1.05487578905748    3.90457586007844
H         2.67449728887674    0.77130814239691    3.74343532163980
H         2.53449309793948    2.06659742274224    1.64823136759476
H         5.54430167596939    1.65000552917608    1.97023602420486
H         6.24648839446895    0.11932011163429   -2.24851466901494
H         5.87970725530268    1.79028006534773   -2.58168639017822
H         4.09404749518985   -0.58094729684229   -1.93026174571960
H         3.65274568129923    0.66094082291769   -2.96301649236614
H         2.08670448128204    2.51280364552708   -1.83020150599885
H         3.80853468970338    2.91079740700675   -1.81012156739002
H         1.72699166452840    3.81890819866788   -0.19992338127428
H         3.17684256570275    5.16928537772943    0.71496962901407
H         4.50729206786152    4.03126836320927    0.30856745666592
H         2.71753965952263    3.98103744880651    2.84953721716198
H         5.60842753859085    3.82658664566510    2.78135316123925
H         4.56914300594973    4.04652000667162    3.95105327717274
H         3.13072145965369   -0.37851892160573    0.68608633302353
H         1.15848345551379    0.39139605066663   -2.36928484320976
H         0.06213284294584    1.08599854384435   -1.17601249038706
H        -0.17727650342089   -0.61371643335515   -1.69692711540821
H         1.58310821309190   -1.74944718596591    0.85800428105282
39
 energy: -52.272037095974 gnorm: 0.114580368947 xtb: 6.4.1 (79825abcba525fcdf90b791dcacef51065a7a4e7)
C         3.56725406072692    1.38907188382499    3.61944989287340
C         3.57162796461432    1.98609721001722    2.20607334946112
N         4.75918621673698    1.50073422140373    1.52474664863345
C         4.77407957855429    1.39340996341529    0.15867104774155
N         5.91777702775333    1.28629959490406   -0.45021322244868
C         5.68192192100776    0.86245310602382   -1.82917012273822
C         4.20078015596567    0.54289376001912   -1.97405120735234
C         3.54054429670374    1.13549393277209   -0.72836990952807
C         2.98007821611195    2.53955988736668   -1.09985732193950
N         2.39779722086604    3.42388680875964   -0.06947069973985
C         3.44936588892766    4.05498790967449    0.72070951344681
C         3.42961037191420    3.53573586202650    2.18664312997515
N         4.49861931871863    4.34668526048303    2.81725087636378
N         2.59724920370136    0.23619761177987   -0.05021225980630
C         1.38383928969548   -0.32254777651531   -0.34879023339636
C         0.55727124772517    0.26867710608648   -1.46336235335578
N         0.86537922204252   -1.28745660034603    0.33451587876998
H         3.48785195111731    2.09110722493511    4.45376383240565
H         4.49761872567007    0.83782786300616    3.78428997958336
H         2.73878129787760    0.67976677315704    3.71075764434376
H         2.70494449160090    1.67622339448482    1.61719710732571
H         5.62795157545142    1.80149659795104    1.96267195849538
H         6.32928316658814   -0.00715423646056   -1.99506990724756
H         6.00911918331752    1.63540040407595   -2.52812215677535
H         4.04701175128685   -0.54103410706512   -2.03739937693003
H         3.88150274907593    0.92262500662538   -2.95298040262229
H         2.22327390081271    2.56016369799900   -1.89209444050801
H         3.78019120273716    3.01726895845358   -1.67942612870476
H         1.73181232578470    4.11330415335736   -0.41419088243704
H         3.43091133050458    5.15330716604690    0.71872840373342
H         4.43980436991640    3.74858824238129    0.36072085318912
H         2.50812514431581    3.79230305884327    2.72680844178347
H         5.37314710682977    4.23031583894188    2.29952799937389
H         4.59024346133963    4.11800035966072    3.80502288653256
H         3.04817473252280   -0.27384299382781    0.70266254055571
H         1.27702973407035    0.67044567708025   -2.17166256676381
H         0.10077242094973    1.12160468239537   -0.95283707494914
H        -0.26902698147722   -0.30725087759122   -1.89225243632010
H         1.45261071996484   -1.53037569020907    1.13399970838547
39
 energy: -52.257204184578 gnorm: 0.128953125518 xtb: 6.4.1 (79825abcba525fcdf90b791dcacef51065a7a4e7)
C         3.67323912410376    1.33905724063193    3.70991649149314
C         3.60808563861778    1.95858256068112    2.30776281078214
N         4.74303607441005    1.60423615164661    1.47325463890893
C         4.86581668729280    1.45719770546249    0.11634372522256
N         5.99458982651535    1.16445170423442   -0.45848437785513
C         5.68570532137555    0.75968648178996   -1.82872195700871
C         4.19957540006006    0.47382816559498   -1.99179378705282
C         3.62697024346853    1.15997192404080   -0.75077079969541
C         2.93359949645326    2.48936271367506   -1.16967789102973
N         2.32176775814151    3.28662294620190   -0.08670985588344
C         3.33718661541367    3.98085591494086    0.69778686808727
C         3.36715546656547    3.49018805294096    2.17336173840720
N         4.42101346716194    4.23640370242024    2.90180573941730
N         2.69276846632106    0.31796903047819    0.00865998453609
C         1.41743607950671   -0.08240112292592   -0.28619525273590
C         0.58322122025768    0.42131155317465   -1.43745175437984
N         0.84316902887741   -1.09635460148087    0.26956789894396
H         3.62461134769135    2.13167650504007    4.46133387797887
H         4.63880052614161    0.83675935518579    3.81950039256856
H         2.79010753284627    0.70017502224151    3.80853724670238
H         2.76918913758798    1.50327308330056    1.77589520825245
H         5.56381436408833    1.80481839310019    2.04165548439120
H         6.37417252414233   -0.07184246512369   -2.02208364377314
H         5.98781144799462    1.61103049672482   -2.44271279375205
H         4.05780291580843   -0.60947313168198   -2.08621899389372
H         3.92592886454903    0.89097697886588   -2.96931136586365
H         2.15561761724170    2.32911181969645   -1.92458232669072
H         3.59108606073399    3.13674448282939   -1.76372750030706
H         1.78268026393542    4.04076539264996   -0.50898698801287
H         3.11396755080005    5.05570187030483    0.73689039734752
H         4.34314014845982    3.88707373400710    0.26918058287285
H         2.41112822364769    3.88204128171216    2.54646124433297
H         5.20639065069395    4.50657245422011    2.30467159235462
H         4.61475293970612    3.83081696118811    3.81523319479048
H         3.19720919728311   -0.28043565048971    0.65499349091065
H         1.23182967730125    0.50367905326948   -2.30560041005209
H         0.07082957095915    1.35616425010592   -1.19246626282715
H        -0.25565005698292   -0.26780729553481   -1.57823051275392
H         1.39948068430445   -1.47777115363191    1.03642097554468
39
 energy: -52.254276574714 gnorm: 0.126097695304 xtb: 6.4.1 (79825abcba525fcdf90b791dcacef51065a7a4e7)
C         3.73937693046658    1.45981095693491    3.59664011641454
C         3.63394617329356    2.02221521528444    2.17302592631583
N         4.80159967123136    1.56621111239450    1.43904818008112
C         4.85069367139916    1.35796807322720    0.08548723297427
N         5.99337205303467    1.09810849554570   -0.47755405112905
C         5.73605926753890    0.77556813920535   -1.87989259794205
C         4.25207765467967    0.45136048481333   -1.97775737480373
C         3.59714726448723    1.15317321090206   -0.78723938625347
C         3.00874975379669    2.53226981965145   -1.20605548591863
N         2.43319637284008    3.21297839220596   -0.02785522057436
C         3.20927402668645    4.07682509794965    0.85528820940927
C         3.28159650853443    3.53183856594136    2.31018800752355
N         4.38811187704263    4.26357586025003    2.97220720464595
N         2.67131136229300    0.18118478398032   -0.19016039413638
C         1.36942754899147   -0.19537278262058   -0.38254412368322
C         0.55661593296967    0.44370514281979   -1.48070126411344
N         0.77556638783601   -1.03610402768921    0.39672275862192
H         3.62594534348544    2.28437275045948    4.30549071733236
H         4.72242228992534    1.00514822621098    3.75001626456672
H         2.90228236981583    0.79967694123557    3.84425620607716
H         2.81630461094129    1.60277114442930    1.58186929950431
H         5.66705728158402    1.73848464816621    1.94727521035652
H         6.30214109493594   -0.15297730874220   -2.02191703408386
H         6.12743429253197    1.67122895399286   -2.36739314734574
H         4.30030872951485   -0.63978799050937   -1.87964500128195
H         3.79501125408806    0.61142881005524   -2.96259473005317
H         2.31043655128780    2.38030754016644   -2.03676782850619
H         3.79136250287420    3.19840817836536   -1.59084588228338
H         1.47493355695063    3.54512772101937   -0.12310922755658
H         2.84090844898901    5.11033204336722    0.80218588543150
H         4.24366824012751    4.08025419965116    0.48860331778450
H         2.32399347933152    3.84178960344276    2.75026422266894
H         5.17108346780348    4.39660024678195    2.32750753345853
H         4.61353414497499    3.87077965866067    3.88395346853086
H         3.08910034417123   -0.32329161533295    0.58524372247710
H         1.00485496638087    0.21035006352235   -2.44287931338477
H         0.54703422049556    1.51945272423774   -1.28274168741861
H        -0.50015014264004    0.15953759184292   -1.51074667095149
H         1.45035867439938   -1.29934780646153    1.11671093281762
39