37
 energy: -56.169508459770 gnorm: 0.128850151931 xtb: 6.4.1 (79825abcba525fcdf90b791dcacef51065a7a4e7)
C         3.20708099107937    2.85414161948310    1.67120478404962
C         3.84351355233942    1.72022947308830    0.88878155960941
O         4.05064284994509    0.62117577772506    1.77855525271885
C         4.59894420739522   -0.55942432997941    1.16526611359615
C         5.62809289339604   -0.43878163857165    0.03333218640705
C         4.94021870725773   -1.58211528568715    2.27169825630567
O         5.22069671695619   -2.89330064205563    1.74244649367086
C         4.32692458950443   -3.74168566342177    2.49048733503372
O         4.22518285172399   -3.11567518187515    3.78380611555148
C         3.82933905660785   -1.80951400236836    3.31105510569762
C         2.52290481059534   -2.19505548337942    2.57387022792916
C         1.37740085244078   -2.14338960090678    3.58832437562920
O         0.23607448426504   -2.75844988195117    3.00529869307418
C         2.92581485655594   -3.54190489784062    1.90447414015949
C         2.18615850042539   -4.81030511378393    2.31539055514560
C         6.20095333497947   -1.20889944448132    3.06903280761346
O         6.43722785194197   -0.13183881412286    3.61262093184235
H         2.64087074958579    3.53762613093897    1.03072624935947
H         4.06140532424467    3.41245647764613    2.06856181952559
H         2.57841362730763    2.30512778652429    2.37869307216409
H         4.76539575515999    1.99016879415368    0.36725466613745
H         3.15719210351304    1.39677341864571    0.09934941553590
H         3.74950129411050   -1.08016121985998    0.70795322209249
H         5.16129175511156   -0.00685186482291   -0.85744158879117
H         6.01556088608169   -1.41299218200068   -0.28166367824886
H         6.51816002977052    0.08952017476477    0.38629023827416
H         4.66926004060283   -4.77729878691580    2.41645549874091
H         3.64671027339103   -0.99578606100893    4.01505267086042
H         2.22064322717676   -1.59796860925162    1.70741265822882
H         1.15492630345668   -1.09374222021972    3.81182481923364
H         1.69210102689747   -2.74038372755478    4.44916843111740
H         0.10654108107975   -2.27781814584035    2.17036151873132
H         2.87453011762726   -3.41800067247603    0.81552923721616
H         1.11362293248527   -4.59560443060733    2.28936240255289
H         2.46573065706559   -5.27370620208378    3.26896938908065
H         2.47935692735940   -5.49263927172450    1.51189418892480
H         6.99723801486855   -1.96778548487421    3.01121643856810
