38
 energy: -53.126287899210 gnorm: 0.157409519561 xtb: 6.4.1 (79825abcba525fcdf90b791dcacef51065a7a4e7)
C         1.08615675958871    1.13414292570874   -0.11491422022906
C         2.49393157371562    0.37122913196771    0.27117061672211
C         3.29141876154891   -0.39449888179992    1.58514940247886
C         2.42323782600022   -1.25952608166026    2.56290810163062
C         1.03787147541184   -1.11663836193270    1.98309824693976
C        -0.04730770280997   -1.95490389205021    2.64535665498820
C         1.19836771004464   -1.68979624293037    0.39104908263127
C         2.28234343373326   -0.93557435468052   -0.49096554452287
C         3.42415472716549   -1.89764028668221   -0.77649196461113
N         4.52569876293298   -1.26441955682905   -1.29169886820430
N         3.52278781883783   -3.16938801491568   -0.52378584908588
C         0.69553458617440    0.44994579929769    2.33487704576386
N        -0.51424799784224    0.91762452365275    2.42620097558866
O         1.69536819697669    1.14433300851614    2.85667893545586
C         2.14206076778650    2.42608508560478    2.31680596304915
O         3.26674852878291    2.35725542100221    1.40588045521443
C         3.40173714982920    1.57587238303734    0.18149744430479
H         1.28625627146133    1.48493735970816   -1.13231385122553
H         0.98785336415907    2.07026615185401    0.45670976835415
H         0.18107069856027    0.54174793757388   -0.03482392529271
H         3.92759395781697    0.32122193708150    2.11218835697160
H         4.04084283366724   -1.05988896290258    1.12700222964916
H         2.44759594486057   -0.74768705236756    3.52952832159193
H         2.79709136000703   -2.28944091918344    2.49994231261148
H         0.36299708153971   -2.94339251029291    2.84541863610894
H        -0.94757132730327   -1.94312875421639    2.00667651400284
H        -0.36340052371411   -1.52408197949107    3.60175275457646
H         0.21441811196016   -1.53309811304950   -0.06426215603116
H         1.61300476553183   -2.69968956040618    0.55321200244872
H         1.84505899150290   -0.88128161768250   -1.50282148679945
H         4.62975891096702   -0.30475660450163   -1.02347484927853
H         5.37712810810115   -1.75074237013742   -1.03374018415026
H         2.59789464736431   -3.59149871634197   -0.47349317386017
H        -1.24154025078593    0.25941755097512    2.14765426244848
H         2.56060720444816    2.95042711120503    3.18220815086948
H         1.26657731113739    2.99646174924895    1.99180761971865
H         4.45613005555462    1.31006493265903    0.08003126016725
H         3.12793739005094    2.20224216314904   -0.67458048898262
