38
 energy: -53.131047654349 gnorm: 0.148778211384 xtb: 6.4.1 (79825abcba525fcdf90b791dcacef51065a7a4e7)
C         1.19461119091983    1.22627420322418    0.03662861933749
C         2.51154046694890    0.30614368171542    0.39992742444547
C         3.28351379569734   -0.46579614441086    1.72545809939765
C         2.32205337604317   -1.40400922406846    2.53377261490289
C         0.92642082190719   -1.12794433317381    2.03194173229291
C        -0.13387611271071   -2.01948651543306    2.66424868981219
C         1.05746131127746   -1.61503209579089    0.40883870245635
C         2.20391857995319   -0.92679647947847   -0.44776581191800
C         3.40440752489042   -1.73919622051515   -0.90565465653490
N         4.38956797345119   -0.99579054347347   -1.50282532368535
N         3.57016778065858   -3.02695543616432   -0.83402436554904
C         0.63447239297417    0.44934316140407    2.38131125864328
N        -0.47857670106013    1.12006726772623    2.42476502779951
O         1.73697884148009    1.06645480418156    2.77851500562608
C         2.30518197255289    2.32239081116499    2.29513583632982
O         3.48745030023993    2.16856883297127    1.47171262526628
C         3.51274965049102    1.42320086092760    0.21804532444419
H         1.31570855311066    1.40946562064843   -1.03574020488599
H         1.10396175534217    2.09820642742224    0.70315777785401
H         0.31564567152252    0.60045297536629    0.14750906756159
H         3.67181444658527    0.31363087070172    2.38611033237123
H         4.05631245528815   -1.06582096372786    1.21847517664334
H         2.50009585666921   -1.24088171118521    3.60083280173913
H         2.53805663217384   -2.47236689908004    2.40567030751604
H         0.23933996982605   -3.02170726303860    2.45992567229361
H        -1.13141003943795   -1.92619197592807    2.20083984404694
H        -0.23193592513065   -1.82415942467057    3.73776966821918
H         0.06688396051914   -1.52413080826321   -0.04997814536781
H         1.33849113011923   -2.68229045222746    0.41816897118939
H         1.69517588106146   -0.58503252637049   -1.36558721199630
H         4.43714643550575   -0.08330727667475   -1.09192849684105
H         5.28765976416445   -1.46023479947718   -1.57837107475766
H         2.82163350558501   -3.55755349226154   -0.39323380926647
H        -1.29902773224815    0.51982913020225    2.34505934146666
H         2.83536139908959    2.82997892662976    3.10772473039675
H         1.51790438391545    2.95941695926341    1.88062837452222
H         4.57503928380852    1.17408822821929    0.17138662620312
H         3.27181620306065    2.16420142038415   -0.55204824178198
