35
 energy: -44.217159960343 gnorm: 0.088728407682 xtb: 6.4.1 (025e99ea0bd20707e8cccc6e19fe66a0758c6dd1)
C         2.35838882269349    2.47859189821565    0.44628151707524
O         1.81519978120823    1.19966782218175    0.14632442889129
C         2.52629511204169    0.48449459994294   -0.77754664945685
C         1.77805349543764   -0.14994731781061   -1.77016298935713
C         2.29376841102767   -0.86905778637312   -2.85294233508785
C         3.68229610855533   -1.00484480993174   -2.98872248909434
C         4.42047148778871   -0.46998039000710   -1.92455383326276
C         3.89205380808813    0.21642219119030   -0.81843417168592
C         4.43229326863430   -1.31203031482510   -4.26848366043973
C         5.00716400304405   -2.75251369176912   -4.32377786443781
C         4.06198437626955   -3.95555239527145   -4.16890314766962
C         4.57809627738262   -5.21036917902272   -4.86668874938298
C         6.09379223716325   -5.25444882007197   -4.87566153316132
C         6.67666991023578   -4.09850918902261   -5.66299680940578
C         5.66188669005550   -2.97009239148375   -5.69692773777258
H         2.43469766289865    2.69405495557880    1.51707047249422
H         1.75078499691567    3.21863417166475   -0.08395128784758
H         3.38114050218807    2.60811183416964    0.07721599818840
H         0.69573581525493   -0.10083903424929   -1.68863903724206
H         1.59168050951991   -1.20991516116195   -3.61179800917428
H         5.49820486820278   -0.59260204573190   -1.88567976548718
H         4.62253567499304    0.63834173901193   -0.13456816359294
H         5.21721691122277   -0.54538578402507   -4.34167084806087
H         3.78407451020626   -1.12511540378905   -5.13539653250647
H         5.73213876777966   -2.69477646074908   -3.49445692158614
H         3.08349700811505   -3.71000019090600   -4.59595049292547
H         3.85561217701801   -4.16975751638060   -3.10986469456918
H         4.19302010840704   -5.36376482672582   -5.88293650158797
H         4.24553278828924   -6.13294752257527   -4.37322611909423
H         6.40290836500103   -6.28618761072945   -5.08699935119571
H         6.35445170542189   -4.97648168476944   -3.84814575313001
H         6.92762518483026   -4.42693628400661   -6.67740692809708
H         7.58548699929949   -3.70073050136653   -5.19307652630120
H         4.98070970048208   -3.12940434692106   -6.53889741060666
H         6.26254983455585   -2.09061350297535   -5.97294701396170
