35
 energy: -44.228494609673 gnorm: 0.093355026900 xtb: 6.4.1 (025e99ea0bd20707e8cccc6e19fe66a0758c6dd1)
C         0.94568122694847    1.12049877127232    0.40585685911842
O         2.28655582555147    1.38105308048572    0.01235700104090
C         2.82168148857383    0.54986724536388   -0.93286132718869
C         2.22450030023985   -0.45599970519792   -1.69396284674000
C         2.90842764630657   -1.12853802536449   -2.71152287933425
C         4.15723585604446   -0.65026281877774   -3.13177802786355
C         4.79791466641159    0.34406809372754   -2.38059599815160
C         4.11992603917121    0.90781049740850   -1.28679511885354
C         4.86714929626388   -1.19599355863128   -4.35359969391996
C         5.49785748031784   -2.57814974090395   -4.03677537660752
C         4.41733121148187   -3.60498223905548   -3.65897802872523
C         4.78260923980852   -5.05553133311759   -3.95951203786410
C         4.97160510361695   -5.21535906292997   -5.45553791588846
C         5.63238761014734   -4.03479309710131   -6.13779162712615
C         6.34029900481854   -3.03955726134898   -5.23633289454921
H         0.74271927096493    1.84745772966566    1.19906141924820
H         0.76960483603462    0.06215198745494    0.62240013274542
H         0.25128797538492    1.32274131974785   -0.41628773353495
H         1.28220221160810   -0.92231564964230   -1.41993169896551
H         2.37198780556332   -1.87377397528933   -3.29618412453344
H         5.83562042874426    0.62905503522666   -2.52203743303489
H         4.64664760180026    1.63596145610338   -0.67716149402293
H         5.53021983963230   -0.42338081864585   -4.76906609067411
H         4.12850398710419   -1.45700298004540   -5.12362557779777
H         6.09955706572768   -2.33242076433286   -3.14555705273886
H         3.54263427055831   -3.34459992727749   -4.26495588684876
H         4.23381467254658   -3.48777221383264   -2.58072979350012
H         3.94834460647113   -5.65675733237525   -3.57597169469382
H         5.70070655661639   -5.37210825146348   -3.44752472014723
H         4.00211143205358   -5.30315704483588   -5.96256347854548
H         5.51573116215005   -6.11710995167290   -5.75847343812099
H         4.82994664245612   -3.50794279256574   -6.66541653719961
H         6.34475130247424   -4.30571528611119   -6.92781731933394
H         6.61449277877955   -2.18642921030372   -5.86505033705901
H         7.25644771396981   -3.52368679578188   -4.86652739653197
