35
 energy: -44.219841217867 gnorm: 0.100753136131 xtb: 6.4.1 (025e99ea0bd20707e8cccc6e19fe66a0758c6dd1)
C         0.82136031197765    1.09565370360788    0.29513509425293
O         2.22896311259837    0.89751477129515    0.30354336580081
C         2.81718880776998    0.58969270084134   -0.89224222224496
C         2.16352786050861    0.45377428965076   -2.11777181883929
C         2.81409425474528   -0.09992810638620   -3.22487156735613
C         4.16338850086992   -0.47977886626363   -3.22347973522419
C         4.86361411528605   -0.08627539526665   -2.07531735788207
C         4.19764964859552    0.41524233280321   -0.94445673675082
C         4.88816728726076   -1.12524038529195   -4.38654569474521
C         5.22094663555744   -2.64008857642082   -4.33160019000192
C         3.97780823147917   -3.53800800697062   -4.44561959600756
C         4.30375166784951   -4.96558960890282   -4.01711866656438
C         5.67833191804775   -5.34091047494673   -4.53579115502963
C         6.12479738222101   -4.55133085522207   -5.74949303819033
C         6.25136929113332   -3.08403410748776   -5.38168797868684
H         0.26992313784419    0.25564143954801   -0.13975890987948
H         0.52404530823768    2.00720318411607   -0.23275990868297
H         0.58794728490564    1.11902718428064    1.36470407778794
H         1.08023851032594    0.51562157970319   -2.17370411609732
H         2.29216730058065   -0.28205112456152   -4.16263302943158
H         5.92963244375747   -0.14329934483929   -1.87933347747067
H         4.84327335770470    0.51082986877951   -0.07651340197753
H         5.92098859446460   -0.75077094678991   -4.33902612329805
H         4.37070594695020   -0.96206849080218   -5.34167466680726
H         5.67299442950360   -2.82908690243676   -3.34335546207964
H         3.62150805263046   -3.39939062582542   -5.47223454505091
H         3.34715171213923   -3.17236022781236   -3.62184182152986
H         3.66512231896521   -5.70914281312463   -4.51093499055416
H         4.20472262813180   -5.07602945313123   -2.92934528411991
H         5.88439493630085   -6.38694491766191   -4.79665771619322
H         6.40129326421222   -5.12261878428785   -3.74164167678513
H         5.40008549306107   -4.70106051055950   -6.55710959468222
H         7.09784341512970   -4.90687447834304   -6.11249662874969
H         6.08632174881072   -2.37363860225321   -6.19801686688625
H         7.27369839623986   -3.01783820816473   -4.98053056648646
