35
 energy: -44.217375859901 gnorm: 0.099267957240 xtb: 6.4.1 (025e99ea0bd20707e8cccc6e19fe66a0758c6dd1)
C         1.12990537556728    1.27374759604208    0.60340632152014
O         2.34699798051834    1.47117500974892   -0.10397149687078
C         2.79135603846946    0.71893242123389   -1.15627567342217
C         2.33467549740046   -0.55345466438666   -1.50289250617286
C         2.96019139486765   -1.24572815446952   -2.54451630049032
C         4.05843517639717   -0.61224830511172   -3.14238535262816
C         4.47417095403347    0.68716104257880   -2.82279676081478
C         3.79436175084365    1.41159316307092   -1.82935224365520
C         4.84333004674964   -1.35439200291006   -4.20436939797339
C         5.23432469114873   -2.79052002945646   -3.76484049549619
C         4.09777875317821   -3.80799348344607   -3.95891247798029
C         4.50895711040639   -5.20935335276989   -4.40046007297534
C         5.38447918500800   -5.25126296751323   -5.63782115556363
C         6.00259233064935   -3.89373118274404   -5.90406022492091
C         6.43921099055135   -3.25320851474053   -4.59893355718119
H         1.01788335481959    2.13113848078246    1.27509694451462
H         1.18299838627057    0.38371272080734    1.23823767867413
H         0.28907535371819    1.18636876036830   -0.09256464020766
H         1.45614329188022   -1.04684078193904   -1.09641909928524
H         2.53025543362603   -2.21826796748785   -2.77752805949657
H         5.39743739239076    1.09716837880261   -3.21969669927773
H         4.12973035006697    2.38926895764070   -1.49622985361149
H         5.80834234599507   -0.85052358882022   -4.35952484027468
H         4.38250096902100   -1.31599227166942   -5.20077528461893
H         5.54255274618986   -2.82576993011281   -2.70632827013190
H         3.53260412710815   -3.40430060295191   -4.80609165139601
H         3.55377899199258   -3.95921377974572   -3.01486139486863
H         3.64869365919633   -5.88494476042221   -4.49044018025789
H         4.96915820910787   -5.60916589264482   -3.48743240388134
H         4.89064946974397   -5.61170034955472   -6.54936846194062
H         6.17221752188246   -6.00402140187537   -5.52025918778052
H         5.19528770746441   -3.40329875939975   -6.45868269048869
H         6.89186289392845   -3.89667026723264   -6.54763670438836
H         7.04853952409845   -2.36737292924877   -4.80462598591237
H         7.05952778429317   -3.93666513591659   -4.00013468268364
