35
 energy: -44.218055051345 gnorm: 0.097611141369 xtb: 6.4.1 (025e99ea0bd20707e8cccc6e19fe66a0758c6dd1)
C         1.19731076454414    0.89494061215529    0.66215773841707
O         2.29869095848081    1.38877282383955   -0.08868631584713
C         2.68563248901464    0.73559858280651   -1.22636234360031
C         1.99701547279014   -0.20359667942449   -1.99537997218947
C         2.71578013370553   -0.93750808603213   -2.94419200284585
C         4.03245082650887   -0.57837120723591   -3.26400842569420
C         4.72228030888302    0.41326307529754   -2.55391370366060
C         4.01928107263150    1.02522298155476   -1.50264227765003
C         4.65105088117883   -1.31055624989371   -4.43699026652127
C         5.24233342963417   -2.63151282173382   -3.87664672796252
C         4.14584078023854   -3.70949842550319   -3.85921818107672
C         4.81306742514512   -5.07394073907116   -4.00394961578661
C         5.30387991690219   -5.17426834268280   -5.43517120655419
C         6.03036370423877   -3.92303586262267   -5.88514702749006
C         6.46246798633053   -3.10137401180876   -4.68413975978570
H         1.32050358689395   -0.10821617654389    1.08327095432435
H         0.29273168937681    0.76688171624289    0.05938961015363
H         1.19067297057469    1.61330796022490    1.48854146527987
H         1.00198893615069   -0.58572906483175   -1.78474673559320
H         2.36013175141347   -1.78927265418664   -3.52124006224866
H         5.73126247784825    0.70620041746170   -2.82630899609134
H         4.52455303933348    1.72598417134403   -0.84467070953524
H         5.47060423109882   -0.69417434454913   -4.83399276974566
H         3.85491703399048   -1.50863992594428   -5.16746712132956
H         5.59890495284437   -2.46524303193323   -2.84615833237518
H         3.55876140603642   -3.57437446344348   -4.77419478068132
H         3.57504658140573   -3.70159764673500   -2.91891645865481
H         4.06669995518001   -5.87223565993324   -3.90278540985589
H         5.61096955424914   -5.37696399644236   -3.31345432850508
H         4.40642610281389   -5.32552667439065   -6.04868482180129
H         5.86705302724883   -6.09883875201651   -5.60547496792805
H         5.35408225776191   -3.23350976577744   -6.40193321563392
H         6.94606270746030   -4.28070155227459   -6.37358540556558
H         7.03983580876599   -2.26242623236764   -5.08552279826209
H         7.22638863141244   -3.67070355776112   -4.13390791181810
