35
 energy: -44.221756658036 gnorm: 0.099672430818 xtb: 6.4.1 (025e99ea0bd20707e8cccc6e19fe66a0758c6dd1)
C         2.48374250987599    1.68590459610948    0.78318161832807
O         1.94547669568077    0.51648950332063    0.18034363145219
C         2.57861840876869    0.16670349238736   -0.98045281750877
C         1.91701232545250   -0.56304519267934   -1.96909507134315
C         2.44762849582296   -0.89216342316980   -3.22034265766036
C         3.77306960570739   -0.55402790792084   -3.52653503856710
C         4.44080298743989    0.19128532700470   -2.54567925139490
C         3.86986618656735    0.56422046143457   -1.31733686806410
C         4.54345231394981   -1.09050785857870   -4.71537778661201
C         5.08977782661533   -2.48202779120549   -4.29857219585277
C         4.05619738939963   -3.47155387129764   -3.73536490321532
C         4.21402914926040   -4.80517033585685   -4.45951797394659
C         5.67976078580268   -5.19348926425231   -4.44548406141417
C         6.54304852622111   -4.37732991334209   -5.38594024998912
C         5.85470211476073   -3.03040615365117   -5.51336224924091
H         1.69309432534740    2.00953777784793    1.46799792298563
H         2.63005940250107    2.50147733791926    0.06804228100478
H         3.39625125632925    1.56734979604332    1.37671200112928
H         0.88920246763086   -0.86933273627067   -1.79512905558159
H         1.87400519300901   -1.49482454351487   -3.92228922856400
H         5.45033813982598    0.57331924339050   -2.65945694579114
H         4.49289207719173    1.16596763271438   -0.66233178021598
H         5.32845589169999   -0.45847889061377   -5.15528014528061
H         3.81705791368557   -1.37595339180129   -5.48838147394437
H         5.83713001091157   -2.25615862092132   -3.51937834490332
H         3.01072402914537   -3.14646669584971   -3.77286999731054
H         4.29323700999802   -3.74729121976723   -2.69718529431304
H         3.88045130974096   -4.64302807122642   -5.49247929369607
H         3.62220153889472   -5.55854783827696   -3.92340505448762
H         5.79276334488483   -6.20357666655605   -4.85979704535473
H         6.06802088438550   -5.14664395293104   -3.42173732621315
H         6.73831249438620   -4.82528618769325   -6.36628608447631
H         7.51419057780814   -4.16831382448848   -4.91882479433909
H         5.16776890080056   -3.16782915437426   -6.35451205811884
H         6.49679871531081   -2.17104035020169   -5.75763329380489
