35
 energy: -44.218670694185 gnorm: 0.100540292832 xtb: 6.4.1 (025e99ea0bd20707e8cccc6e19fe66a0758c6dd1)
C         2.47768963899023    2.09222890230056    0.75629695194909
O         1.67653353484266    1.30267281840795   -0.11285519891509
C         2.26478787268869    0.55530407204529   -1.09574067487499
C         1.53723492738031    0.39957745090427   -2.27645451922056
C         2.02533836817836   -0.45234739759492   -3.27218135019229
C         3.27824844254859   -1.07474162415865   -3.18428772256540
C         3.99683165668628   -0.91368708701129   -1.99217306817957
C         3.45953308914659   -0.14413054311284   -0.94672224898427
C         3.98887084389390   -1.57369396008034   -4.42554099482990
C         5.17928457575262   -2.55683956944604   -4.26785139256481
C         4.59488403225313   -3.93280343335483   -3.90750117719271
C         5.52891009580109   -5.13247919138756   -3.78016387742806
C         6.54940718544544   -4.99941538410157   -4.89382337689544
C         6.07820694358621   -4.17721393182718   -6.07610707892638
C         6.07594332301718   -2.77412153548606   -5.49680805742447
H         3.00832781550337    1.44377355668566    1.46111263344106
H         1.89234206594286    2.87217935957103    1.25332542474975
H         3.23906741203027    2.56084590959351    0.12407250114707
H         0.58091091719968    0.91498003298547   -2.29300422028082
H         1.50707263686060   -0.61404996328955   -4.21569924296577
H         5.01237332883869   -1.29310202450121   -1.93948621546288
H         4.04226810873440   -0.09985326390756   -0.03143431838170
H         4.28782584367937   -0.68349770253550   -4.99771391683630
H         3.24102192169567   -2.09479343030666   -5.03859890652468
H         5.76027204022728   -2.27860600673372   -3.37245490741373
H         3.85169560390614   -4.15128881545577   -4.68212234166355
H         3.94712430666083   -3.75460375788210   -3.03647420953173
H         4.91242665688274   -6.03305115802123   -3.89631755849686
H         5.98967601643034   -5.23869542242374   -2.78937251727314
H         6.96365182570938   -5.97094573383674   -5.19253987001064
H         7.42703439423957   -4.50095807179243   -4.46684731845462
H         5.15784221221524   -4.45505936127552   -6.60108467054399
H         6.83664710435273   -4.22844796016628   -6.86803198261069
H         5.70017052422863   -2.06468268706151   -6.24097648077837
H         7.08177560724150   -2.38937886952863   -5.27155162013541
