35
 energy: -44.219266046527 gnorm: 0.105890898936 xtb: 6.4.1 (025e99ea0bd20707e8cccc6e19fe66a0758c6dd1)
C         0.82656995525943    1.60723554413024    0.04922483802122
O         2.13459432043592    1.06714728423771    0.18358371179865
C         2.76745731579667    0.47941034576029   -0.87694294702771
C         2.09151287510735    0.03693417366980   -2.01491623409433
C         2.78480257225809   -0.46965620362448   -3.11864103593816
C         4.17678799461655   -0.61683639456258   -3.04382053432512
C         4.90347941910034   -0.26051084848974   -1.89997200914776
C         4.13908385224578    0.24349150010080   -0.83434754425815
C         5.01115484991626   -1.15990426973758   -4.18555455363283
C         5.30716166771681   -2.68214602637070   -4.12484065514325
C         4.05933035560198   -3.58066387057056   -4.10949355359421
C         4.47269661173705   -5.04932636484835   -4.10902263926103
C         5.75625436039385   -5.30127869205292   -4.87606716204308
C         5.95820973643739   -4.29504203742342   -5.99076060484330
C         6.19967704747840   -2.94085772473988   -5.34877996037967
H         0.09057743663354    0.84087886817069    0.31351409850571
H         0.67571904650344    1.92484085662675   -0.98728983628762
H         0.83807104063147    2.52112033607614    0.65229040789494
H         1.01227823915631   -0.07253585439974   -2.07605742849389
H         2.26709619067187   -0.74167298507600   -4.03676960982691
H         5.98337702786759   -0.36609444836783   -1.92698591221124
H         4.51573466743075    0.53856579355647    0.14051547819627
H         5.96890581474279   -0.64722837080950   -4.35608851646144
H         4.55111594833384   -1.06844617977392   -5.17886331682322
H         5.94196684244548   -2.95490384094969   -3.26500300307755
H         3.67543098706634   -3.38190810526622   -5.11608198717309
H         3.31583682581904   -3.47596051641396   -3.30557170253400
H         3.63536130572263   -5.67583136558657   -4.44209086857030
H         4.55977378834830   -5.27439121864072   -3.03803336743475
H         5.68110989160644   -6.32691059871234   -5.25964751527521
H         6.59489192116167   -5.32337108814578   -4.17094537649901
H         5.07915938742815   -4.29748199761706   -6.64431651433168
H         6.77348962945695   -4.52843396284077   -6.68778884197836
H         5.94797492428556   -2.10092020566010   -6.00410150653190
H         7.23864899473289   -2.79398641176479   -5.01797475915169
