35
 energy: -44.223986921885 gnorm: 0.099716206915 xtb: 6.4.1 (025e99ea0bd20707e8cccc6e19fe66a0758c6dd1)
C         0.83445924751922    1.44961411401791    0.19073866362999
O         2.24589472251504    1.31513868104806    0.08855436304167
C         2.76320674173690    0.52163301514088   -0.89805807080299
C         2.11506018024206    0.05966976031591   -2.04442852269138
C         2.83852191880094   -0.47230629505556   -3.11638813683581
C         4.23575866985547   -0.58247117229735   -3.13822096481199
C         4.80187530345862   -0.27187871920283   -1.89464466519837
C         4.12891155263166    0.27332003085946   -0.78841117344252
C         4.92529266976680   -1.17577585379305   -4.34949290622457
C         5.36857376356294   -2.65363532701365   -4.18228222740751
C         4.09673574418598   -3.50953941348615   -4.30273588398857
C         4.40379066006248   -4.98921639722945   -4.09270086557678
C         5.73006763575483   -5.32663562478629   -4.74576703263222
C         6.05810009735563   -4.40832395499598   -5.90548166613596
C         6.28765766344778   -3.00999812439019   -5.36119409937105
H         0.34435261526308    0.52608792229376   -0.13442470563621
H         0.41547861220281    2.27138832520545   -0.39844226935208
H         0.59519665201052    1.55595032405320    1.25396572721486
H         1.03162874495783    0.12097911524394   -2.09815753591834
H         2.29229525810022   -0.75906274218076   -4.01326063262462
H         5.82192479726157   -0.64022722988520   -1.85134461447297
H         4.59112737963987    0.56134697479926    0.15110443554288
H         5.74963121028483   -0.48393226812710   -4.57537726875181
H         4.23446138285253   -1.04526811146091   -5.19352047029183
H         5.85368866380272   -2.84617395009689   -3.21053759699160
H         3.55013718423095   -3.41620775157664   -5.24752266697464
H         3.41792182805902   -3.15544776151399   -3.51288365911041
H         3.51894530198462   -5.47624669378228   -4.52214650748679
H         4.40269140878166   -5.20676528718092   -3.01663120459498
H         5.55344770079886   -6.38743524587596   -4.96533695111476
H         6.48747998457388   -5.26039278906154   -3.95650396790547
H         5.26954174220168   -4.30764402187212   -6.65907974709439
H         6.92919074720690   -4.69882187461536   -6.50699101434718
H         6.12472863260804   -2.28005937401915   -6.16053061938508
H         7.31560610386584   -2.94920271362908   -4.97377715056557
