35
 energy: -44.220136007992 gnorm: 0.112607630505 xtb: 6.4.1 (025e99ea0bd20707e8cccc6e19fe66a0758c6dd1)
C         1.10035857356120    1.09600233629117    0.70408894356251
O         2.46354797506759    1.03332583834691    0.30601649462385
C         2.89841416351976    0.51413004853098   -0.88225711632361
C         2.16535474969643    0.51062844671125   -2.06980958057662
C         2.70404177324841    0.06225585083741   -3.27988029036418
C         3.93989213085863   -0.59827219893160   -3.31537799379097
C         4.73911857118092   -0.55999247778748   -2.16506955611098
C         4.16932347176486   -0.04468535984250   -0.98877599117034
C         4.66301565524306   -1.11600454852972   -4.54162955031021
C         5.21179044147475   -2.56485504685571   -4.45105017155360
C         4.07320144928326   -3.52662172802973   -4.07253625813920
C         4.61278512106743   -4.92667008371330   -3.79584967766779
C         5.90946795318459   -5.08661472677641   -4.56551785990662
C         5.99182326455024   -4.46203954938188   -5.94354655990482
C         5.85213213097340   -2.95816804572696   -5.79150168492273
H         0.99237658074016    1.07159478830024    1.79339170767392
H         0.67220514759497    0.19089051448179    0.26199276016116
H         0.59002556146842    1.89475187476398    0.15585071429989
H         1.15649815180154    0.91308638318659   -2.04325221913476
H         2.07530021137939   -0.12472007946035   -4.14861335925078
H         5.78599466518023   -0.83873190792831   -2.09865225026453
H         4.75769822803286   -0.06598269338661   -0.07627714287182
H         5.56504420165859   -0.54923078668719   -4.81424157983541
H         3.98632191417906   -1.13146615097424   -5.40679380184835
H         5.96528919250326   -2.62576758234535   -3.64779149033762
H         3.36341808567926   -3.57296032259267   -4.90570080384155
H         3.54081180622984   -3.12508403198220   -3.19768512232830
H         3.88487400389841   -5.67269781818516   -4.13959580370853
H         4.85816688754518   -5.00869422147167   -2.72893146558585
H         6.08186216599871   -6.16547972066389   -4.67055093138314
H         6.76005942660075   -4.63958350948271   -4.03858807355075
H         5.14026798831708   -4.91303594688854   -6.46443681261090
H         6.98330388533183   -4.73165716645722   -6.32990646381588
H         5.31952558374689   -2.51574819723538   -6.63937565008372
H         6.82322458805382   -2.44448632341762   -5.73169786289314
