35
 energy: -44.214623773758 gnorm: 0.114389369070 xtb: 6.4.1 (025e99ea0bd20707e8cccc6e19fe66a0758c6dd1)
C         0.80564488682907    1.10819246698822    0.19120333519136
O         2.20799780255808    0.88413951229133    0.12889802339921
C         2.76356506741646    0.31832596347261   -0.98549289854594
C         2.00709823053710   -0.12656137233249   -2.07062074073169
C         2.71891213839447   -0.71510710807892   -3.12058632203717
C         4.11661802292069   -0.63790439100061   -3.19367198807383
C         4.82623819678494   -0.07205377545789   -2.12610932291445
C         4.13400944655992    0.54871854957749   -1.07285933919534
C         4.94276147422139   -1.10544729168252   -4.37415407094839
C         5.69455804763722   -2.45463817302297   -4.22245688188393
C         4.67081996973468   -3.39066939310521   -3.55878623138536
C         5.11495087993237   -4.84966045847444   -3.60276587018817
C         5.13440474093054   -5.20805812722894   -5.07603788389061
C         5.35706938212783   -4.08568399112657   -6.06928327346335
C         6.32006975983552   -3.06810455795747   -5.48496903740852
H         0.11361598844364    0.26190385123568    0.13014651490862
H         0.40890835017244    1.77893184671844   -0.57736715933981
H         0.70154219095719    1.65540273913085    1.13392774768705
H         0.95122799931420   -0.37395291483618   -2.00425202913124
H         2.19450580353326   -1.20579422587721   -3.93863109352309
H         5.87907331568589    0.00556501301431   -2.37824030603211
H         4.57878978406514    0.92821196792886   -0.15773760911456
H         5.64936831849800   -0.28861055807748   -4.58076927336678
H         4.33333142635043   -1.13343865940341   -5.28764964404120
H         6.50468420521313   -2.20862784803961   -3.51544220983428
H         3.70521851998962   -3.36057949431430   -4.07532402073723
H         4.31657517209372   -3.24323310409440   -2.52785998429413
H         4.33624076627906   -5.47044337590951   -3.14144981377706
H         6.06627602970725   -4.98378035481922   -3.07149667818298
H         4.15132913683077   -5.63804287433750   -5.30707221017904
H         5.85617016795720   -5.99715616065360   -5.31557227800632
H         4.42235622511590   -3.62954092886077   -6.41296279759672
H         5.75903513801522   -4.56917687852397   -6.96909415114215
H         6.40248031459789   -2.19448902695774   -6.13941515780248
H         7.26415374046076   -3.55798640880201   -5.20356687567901
