35
 energy: -44.220992132621 gnorm: 0.088333475877 xtb: 6.4.1 (025e99ea0bd20707e8cccc6e19fe66a0758c6dd1)
C         2.35959168588680    1.98838951940827    1.01203101110053
O         1.82154716900814    1.37903902983365   -0.15410596384719
C         2.55697466700171    0.69252709681102   -1.08066671299346
C         1.97485723857072   -0.49303985870810   -1.53148767292946
C         2.50886564225475   -1.20461418473542   -2.61037128444070
C         3.68338962612556   -0.74434590045854   -3.22154231809627
C         4.29126600542651    0.43195519912418   -2.76302322442893
C         3.71973728930777    1.14707664838023   -1.69726965632264
C         4.19309230238771   -1.54956366685848   -4.39902898336209
C         5.04801615027698   -2.77908421308632   -3.99170772585165
C         4.35726481528324   -4.15070002219507   -3.91305983412265
C         4.23583863032460   -4.94452790361811   -5.21033944011508
C         5.63769035626338   -5.28143849646428   -5.68008485870885
C         6.70592568454973   -4.39529364478753   -5.07225245288260
C         6.25158290736332   -2.95379879054974   -4.93109302326578
H         1.51388019661691    2.04063663827623    1.70548517057454
H         2.67835831065928    3.02385662256589    0.85650765747972
H         3.15133005516681    1.37810519913891    1.45891932733645
H         1.08460568459688   -0.86559303737709   -1.03236280986461
H         2.02602182810170   -2.16428373867249   -2.78606788202516
H         5.19970375025474    0.84396314590167   -3.19086290811953
H         4.27633810354881    1.85987390814493   -1.09609732353715
H         4.76518230018957   -0.81644250476760   -4.98592907673666
H         3.30658724946935   -1.94831634156777   -4.91066143550828
H         5.54242714844572   -2.55389039938914   -3.03173859589483
H         3.37281274783978   -3.94990784796500   -3.47643702218089
H         4.92846099068920   -4.76750097767028   -3.20360421533791
H         3.61806761009301   -4.33375203003021   -5.88107424123732
H         3.68293322912352   -5.86975136931739   -5.00174462332541
H         5.70451179019821   -5.14788697563565   -6.76746716189066
H         5.89237530595671   -6.29990749252533   -5.36567391025989
H         7.54466580160589   -4.42376093227820   -5.77622363490559
H         7.05669292701435   -4.70562012900642   -4.07944770270337
H         5.92366557906942   -2.69651177525404   -5.94330295139512
H         7.12279449955420   -2.31291602673621   -4.72928714605586
