35
 energy: -44.222288782002 gnorm: 0.097233297846 xtb: 6.4.1 (025e99ea0bd20707e8cccc6e19fe66a0758c6dd1)
C         1.07162550241598    0.21796361006902    0.62740042757140
O         2.30581079748326    0.46949268759872   -0.03153443429238
C         2.57736160540567    0.10700478758595   -1.32208848459907
C         3.91754302333872    0.42225882323338   -1.55055712544021
C         4.42900718237576    0.06361260358834   -2.80166469829822
C         3.62315875846128   -0.62391917856921   -3.71970166856984
C         2.24641516950439   -0.75750295739767   -3.49571459510681
C         1.67225514211796   -0.31775801432484   -2.29120677297653
C         4.18431567421281   -1.15567774774087   -5.02238468939410
C         4.91614888024446   -2.52423380488289   -5.02158755272840
C         6.43945889717657   -2.35099721974916   -4.90255601683312
C         6.99438233143711   -3.56483296501390   -4.16329681403880
C         6.25111985326930   -4.87329645498231   -4.34995680331311
C         4.83051173137512   -4.78312795196441   -3.83074407848011
C         4.43595460302600   -3.31772726254004   -3.79630209747667
H         0.32271629691715    0.95534232669776    0.32040859705412
H         1.30726802899047    0.42750613074941    1.67552080915333
H         0.67356702730366   -0.79748281939057    0.53032435428628
H         4.63148581635726    0.83374462304488   -0.84243675743846
H         5.44262480339870    0.39558949378346   -3.01925091729597
H         1.60818344972125   -1.33777745681747   -4.15450004312360
H         0.58719239385269   -0.35584542660581   -2.26928074589355
H         4.86594206397011   -0.42542128479338   -5.48207619763447
H         3.35349577652750   -1.17030636792457   -5.74084621842615
H         4.65220966425497   -3.02640782375934   -5.96755402260178
H         6.76084774239668   -1.42377083371839   -4.41566456304843
H         6.82589008493011   -2.22825135668384   -5.92512149428747
H         7.02447525681515   -3.36382190516176   -3.08475041029944
H         8.03439884487385   -3.73929192181360   -4.46855795885649
H         6.85032438518062   -5.63653119409927   -3.83699671916904
H         6.23705669092593   -5.10564466723477   -5.42085096234513
H         4.73700129771642   -5.18433458833867   -2.81577618293847
H         4.14185197750930   -5.30267230971172   -4.50958342683355
H         4.85030636202521   -2.76802882441858   -2.94516193998197
H         3.35192371233268   -3.15491199244910   -3.70231175562483
