35
 energy: -44.217421811249 gnorm: 0.102147935424 xtb: 6.4.1 (025e99ea0bd20707e8cccc6e19fe66a0758c6dd1)
C         0.69942048594979    0.70067979314466    0.08995438029837
O         2.10603836248280    0.90461043695082    0.06728661882603
C         2.72672049258763    0.56873325237137   -1.10429662533129
C         2.07023558177324    0.17181659813035   -2.27012422268074
C         2.87509209752121   -0.36052564060305   -3.28220652035531
C         4.26538090256116   -0.53261998517882   -3.23358468794220
C         4.83197379887632   -0.31970784217386   -1.96982891942010
C         4.07509632909565    0.26287254133298   -0.93948381371718
C         5.01121161376985   -1.07263105823367   -4.43640299676868
C         5.77220567828338   -2.41557355616847   -4.27540725149046
C         5.04671468528500   -3.37070017822924   -3.31309296988280
C         5.42996306404444   -4.81953925118719   -3.59914789781461
C         4.99136692359413   -5.27907213698161   -4.97603595401986
C         4.94225626150861   -4.08873329285823   -5.91226307717403
C         6.00849989487481   -3.03803953756293   -5.66041410911863
H         0.36265532956888   -0.33012428021708   -0.06126912451433
H         0.20481191124648    1.34000032886824   -0.64803167193746
H         0.40199424487539    0.98079138547941    1.10586820461417
H         1.02097988165187    0.26436993410440   -2.53651806871268
H         2.25650157760330   -0.71311572989176   -4.10561352952773
H         5.88257779378612   -0.43665518509606   -1.72363580373484
H         4.55849060767086    0.61167678874345   -0.03176240641249
H         5.82481890805184   -0.36015809820930   -4.63547779254915
H         4.39435034384773   -0.94616762214030   -5.33648734303722
H         6.67267770277740   -2.12128401843296   -3.71039484599441
H         3.96123919590826   -3.33912015536440   -3.45748310630650
H         5.18200440818393   -3.09121565216829   -2.25781061293528
H         4.99377927004531   -5.39333249468110   -2.77145327609040
H         6.51680888222656   -4.86607888100903   -3.45131396356345
H         3.93858787883112   -5.55284569699957   -4.82972906117749
H         5.56150554890182   -6.11633359594548   -5.39428583216452
H         3.94865194467737   -3.64230821528387   -5.79682518747467
H         4.92618435990594   -4.48867892761426   -6.93441112866597
H         5.93509542806908   -2.17097898654252   -6.32457757194234
H         7.04036307639646   -3.37238385921707   -5.84463738049113
