35
 energy: -44.213678702106 gnorm: 0.112337010566 xtb: 6.4.1 (025e99ea0bd20707e8cccc6e19fe66a0758c6dd1)
C         0.98162540641736    0.85428349154016    0.21527938417948
O         2.26375544360409    0.24064593360485    0.19894239357840
C         2.89207393615329    0.21917653258113   -1.01572711512495
C         2.20193952361951    0.30357177413545   -2.22579371829714
C         2.92483510314584    0.05372248670669   -3.39647307641118
C         4.25974176678461   -0.37365380495277   -3.41251117327468
C         4.94454065892431   -0.26215266616264   -2.19511406547680
C         4.27041273521689    0.02266370021972   -0.99582026192344
C         4.90273546504483   -0.91383553853446   -4.67322927187268
C         5.17773786120103   -2.40344778954837   -4.33565673988709
C         3.86531890092538   -3.20469581748224   -4.35017956258645
C         4.11756469629986   -4.62601845058304   -3.85615988777912
C         5.51821288523493   -5.12800330088202   -4.14865540974175
C         6.18488274797478   -4.54453919542783   -5.37786677534468
C         6.13724423958552   -3.02740015736559   -5.36111947359718
H         0.26746636541943    0.31778372610666   -0.41795139682250
H         1.11287843213003    1.88330257610789   -0.13383975054441
H         0.70536367021436    0.84283365646434    1.27478593224994
H         1.17358139146466    0.65187881786796   -2.26618034173664
H         2.32014060624366    0.21267581383520   -4.28756875394714
H         6.00634269439723   -0.41789854705481   -2.03270672137844
H         4.87522358867580    0.29052292282261   -0.13457241773519
H         5.91935426414346   -0.49752691901073   -4.72200098587840
H         4.29092767999033   -0.66063103011418   -5.54972307083663
H         5.63560058049357   -2.57471479691130   -3.34685718108182
H         3.41378405161013   -3.24599400609482   -5.34743258567440
H         3.19659636296322   -2.75577794014224   -3.60096752674441
H         3.46059602280081   -5.41635376213256   -4.24130354113557
H         4.03842755010264   -4.83828352128854   -2.78194599152689
H         5.51862986351537   -6.22434546304845   -4.20095336415410
H         6.28681772716369   -4.93450538603649   -3.39181796436185
H         5.65619212395461   -4.99757568799963   -6.22351147390792
H         7.19237757239526   -4.98023158573184   -5.36656292098954
H         5.80167301616686   -2.74223391026559   -6.36330083829657
H         7.18406126761007   -2.69075366268743   -5.39730255907886
