35
 energy: -44.221885548818 gnorm: 0.101898815953 xtb: 6.4.1 (025e99ea0bd20707e8cccc6e19fe66a0758c6dd1)
C         1.41232630025271    1.64616714748980    0.58898810253787
O         2.58338230780639    0.88999087251307    0.31059874387780
C         2.89904833052558    0.37953426740147   -0.91840739077464
C         2.05207236888586    0.37812024137704   -2.02759580563531
C         2.48841753533713   -0.31556414138726   -3.16068790678704
C         3.83320997247483   -0.70611782991923   -3.22301471747192
C         4.65365995442583   -0.76476794768328   -2.08861631966658
C         4.12966010322061   -0.27093891556699   -0.88220367027339
C         4.33211808212442   -1.16581002855293   -4.57742274470277
C         5.08439221636843   -2.51968523223619   -4.47928135416763
C         4.02226218272090   -3.60620408744109   -4.24261829363970
C         4.73227375654471   -4.91414301556392   -3.90643273434696
C         6.09848891920330   -5.05265522143884   -4.54957211726082
C         6.19905878584653   -4.32560663254306   -5.87513829794626
C         5.88661384924342   -2.84550798505587   -5.74885720683335
H         1.34368714290636    1.64456283883009    1.68174720121350
H         0.55673849633066    1.10425893911573    0.17390160217210
H         1.50525247277673    2.69648412202370    0.29368361024525
H         1.01085151663551    0.68664196077422   -1.99379049965009
H         1.82386092198226   -0.34887420455744   -4.02221448344962
H         5.68064826149297   -1.11060722058905   -2.14982657635306
H         4.74439202158891   -0.10294984707080   -0.00289888082779
H         4.96461971485401   -0.32736676981703   -4.90324465168118
H         3.40122192917275   -1.22525684346420   -5.15756160947611
H         5.88402990901200   -2.51215684583693   -3.71953264430898
H         3.21255828196161   -3.69541870243102   -4.97509572990391
H         3.46622310068605   -3.29368826982430   -3.34640951754664
H         4.13206664619337   -5.75519397201007   -4.27651122493717
H         4.77241243864313   -5.06531152617839   -2.81979037827569
H         6.26807493367131   -6.12633454917688   -4.70173870639958
H         6.91213290317338   -4.76895589032401   -3.87244884882469
H         5.54509136809537   -4.81029811695944   -6.60812641296877
H         7.21899901943190   -4.38355283902095   -6.27684168874466
H         5.23962738959325   -2.63744094681719   -6.60700168740631
H         6.76236747893417   -2.18227541366166   -5.80922362549370
