35
 energy: -44.221359219066 gnorm: 0.094559017660 xtb: 6.4.1 (025e99ea0bd20707e8cccc6e19fe66a0758c6dd1)
C         1.60404212180332    2.14552708365874    0.43581193595655
O         2.89317668170022    1.61488601102768    0.15791355899947
C         3.06755233771143    0.71610417485020   -0.85818259961857
C         2.14173820985970   -0.25121674511839   -1.25166407124051
C         2.35898781942912   -1.15888155013593   -2.29302858195052
C         3.53651225092496   -1.01697936819168   -3.04014537847309
C         4.50158648724439   -0.09609861128174   -2.61113709472616
C         4.30129442051608    0.74415303893071   -1.50310519175295
C         3.82791384692255   -1.75598778582263   -4.32995117945252
C         4.40663464975880   -3.16199661863947   -4.01890844391401
C         3.96227695292447   -4.10940530394500   -5.14568076498268
C         4.87167367652138   -5.33359322137777   -5.19261636817779
C         6.28342190116322   -4.96661218888846   -5.60692258652254
C         6.59143168715172   -3.52569750076618   -5.25374489171203
C         5.93966398295660   -3.07344706879701   -3.95955434556247
H         1.59627915191998    3.14838952237637    0.87517854471386
H         1.00484463888371    1.57729006480006    1.15418569981402
H         0.97295890222522    2.13876809642655   -0.45900315756859
H         1.15348756544480   -0.26147220953731   -0.80030521946604
H         1.59553971782354   -1.89759682706989   -2.53055717562278
H         5.47208522704038   -0.08013957257028   -3.09686747123889
H         5.04567382954453    1.43083984753759   -1.11111909413899
H         4.51880645631276   -1.18359137889939   -4.96574602154376
H         2.85062904071666   -1.82574839193921   -4.82665082977861
H         3.95629680985785   -3.46174369254481   -3.05763702133749
H         3.95510203445986   -3.53760528151130   -6.08007688452774
H         2.93380730217873   -4.44353324286719   -4.94407603633408
H         4.31641370578336   -6.03624634726532   -5.82707545013634
H         4.93257348088422   -5.68611755775441   -4.15469900630306
H         6.64777012937850   -5.21133459549527   -6.61293585618228
H         6.93969569498207   -5.61422453455941   -5.01455384787386
H         6.16582069770174   -3.01460904321449   -6.12409807917425
H         7.66930668112546   -3.31993155775011   -5.28285386244475
H         6.29539526803227   -2.03939177072713   -3.90975257981792
H         6.47100532399186   -3.51030910571837   -3.10089614300453
