35
 energy: -44.220424826672 gnorm: 0.091508539292 xtb: 6.4.1 (025e99ea0bd20707e8cccc6e19fe66a0758c6dd1)
C         0.77861668570691    1.10917614373749    0.23338980599765
O         2.12270277631392    0.65178834409155    0.16335876441713
C         2.73970582214516    0.26339384800482   -0.99384649346921
C         2.07171742284088   -0.11648326674546   -2.15881606413515
C         2.69957460093164   -0.49871064521183   -3.34843383290555
C         4.09886756946992   -0.58042597134435   -3.36204677984190
C         4.78875645902298   -0.26471571596995   -2.18398985984553
C         4.12331691356427    0.10734618655396   -1.00389046095965
C         4.91137125224347   -0.99006948133898   -4.57311130756870
C         5.71305893103385   -2.27754134729948   -4.24411397852155
C         4.83735239443775   -3.27092252793764   -3.46245885535806
C         5.22698749556577   -4.74140037530720   -3.57959464857646
C         5.15599321746673   -5.27856143632960   -4.99584871358778
C         5.17315683421015   -4.08623656843802   -5.93067836139968
C         6.20723986213041   -3.08076113171596   -5.45744247899288
H         0.05007133483062    0.35063588069615   -0.07103537617495
H         0.67307291864633    2.05603007157449   -0.30542365977880
H         0.58408808840591    1.40539936850376    1.26944781245205
H         1.02018628270672    0.09121782777227   -2.33661326026077
H         2.00537334499633   -0.74336107130568   -4.15043375950530
H         5.87161867229431   -0.32978790419193   -2.21908299697006
H         4.75708273287071    0.32882475952932   -0.15032107139332
H         5.64289677883244   -0.19862581176741   -4.79149777497849
H         4.21012948457020   -1.14578228177457   -5.40418060589804
H         6.56916923845503   -2.01846795954646   -3.59862862208012
H         3.77930708393714   -3.08435260082058   -3.67654910599478
H         4.86172595125381   -3.01405788114539   -2.39313091205329
H         4.50958267173566   -5.32026723979024   -2.98392960129939
H         6.22047232932848   -4.88874675900308   -3.13627583405475
H         4.20306637518328   -5.82301772619473   -5.00996141753548
H         6.02073900818816   -5.92675805635270   -5.17765527005831
H         4.25243612249532   -3.55782935224273   -6.20073387640362
H         5.48737173113501   -4.40464817623929   -6.93311763901401
H         6.46144989047769   -2.49504085245717   -6.34660182140654
H         6.99944173266290   -3.67513750672073   -4.97827769201980
