35
 energy: -44.226887353009 gnorm: 0.084238491071 xtb: 6.4.1 (025e99ea0bd20707e8cccc6e19fe66a0758c6dd1)
C         0.90671038236930    1.06056805814584    0.28625683112227
O         2.31687319753805    0.96252482720043    0.13624437118091
C         2.82943719149287    0.45642416547402   -1.02642813300914
C         2.18437950080032    0.42663234214408   -2.26363558098211
C         2.86717683382638   -0.06794928285241   -3.37928322455163
C         4.20500138322797   -0.46901955230304   -3.25990297686231
C         4.83859963936237   -0.42873119173793   -2.01075612380751
C         4.10650415904822   -0.07453255631655   -0.86513228232327
C         4.92898598913428   -1.03028589310595   -4.46633313489217
C         5.27060834418754   -2.53214424243247   -4.27596021811032
C         4.00349501150456   -3.40049661906659   -4.20496169352175
C         4.38866554833936   -4.84111121458410   -3.88229367331793
C         5.73586867745948   -5.26933733280814   -4.43095011378206
C         6.06427829953329   -4.49373244987139   -5.69048329540383
C         6.16562416233000   -3.00104716172681   -5.43381150517352
H         0.41030107551600    0.09483431753221    0.14564211784640
H         0.43894893933477    1.76633582416868   -0.40734456227678
H         0.67372458921994    1.44224331975154    1.28578040942639
H         1.21034382537596    0.89811398201894   -2.36073805975580
H         2.39216794676353   -0.12129044676376   -4.35728853182543
H         5.85598422284698   -0.80511987896152   -2.04704192689847
H         4.41275327059334   -0.02130447104793    0.17538241606920
H         5.89280084962634   -0.50088461038712   -4.46706133433781
H         4.25152888817118   -0.86903033730450   -5.31586900791324
H         5.75590524658251   -2.65320527979995   -3.29283949072229
H         3.49258187901037   -3.29209570212213   -5.16793618120594
H         3.34376659324397   -3.02584825821836   -3.40844880122922
H         3.62953981974663   -5.52395881913185   -4.28481156573080
H         4.19025122814018   -5.02571297363097   -2.81842874272660
H         5.57459475256264   -6.30262208054853   -4.76413885610977
H         6.62400428744677   -5.21436490152597   -3.79126977607727
H         5.29445506977857   -4.64333240124511   -6.45524655662641
H         7.08294882786538   -4.81463493589480   -5.94412360649112
H         5.75882206699819   -2.49191467441668   -6.31335200344137
H         7.20842815055061   -2.65643916686902   -5.36845753831179
