35
 energy: -44.221825185352 gnorm: 0.105360427423 xtb: 6.4.1 (025e99ea0bd20707e8cccc6e19fe66a0758c6dd1)
C         0.92625883779981    0.98576964671341    0.27625155903626
O         2.33883804615593    1.03283867013873    0.12433097550610
C         2.81640118539560    0.42867376831259   -1.00597220623611
C         2.09525399325691   -0.31362050689966   -1.94224949476847
C         2.69791931068879   -0.63201688386530   -3.16327819334896
C         4.07807690568428   -0.53556084927424   -3.38854414004185
C         4.76875937069721    0.12598999378294   -2.36446116062695
C         4.19365570551124    0.56408892299102   -1.15980372569220
C         4.81296240372734   -1.12464238794230   -4.57495618622398
C         5.45371337834932   -2.45075946247327   -4.08569361108059
C         4.40930815413000   -3.47826494601577   -3.61867857887682
C         4.95636516474471   -4.89988026301611   -3.70574132657824
C         5.16870318146149   -5.24649382503793   -5.16660729398150
C         5.53829189753278   -4.00240764296606   -5.94858773001201
C         6.39167003532416   -3.02747870547272   -5.15768945391982
H         0.43700388789030    0.01343279630625    0.39468718152459
H         0.36336006735915    1.43699796917067   -0.54687040877859
H         0.56979042954151    1.46415598401026    1.19444682889541
H         1.05776662874395   -0.55969003449988   -1.73358931277791
H         2.19382339930378   -1.16528957296641   -3.96731839530834
H         5.85370639761533    0.13955215858379   -2.39207469436834
H         4.70904891099475    1.07906065732045   -0.35452953041687
H         5.57122500037626   -0.40714533507371   -4.92055874820270
H         4.23072601555540   -1.24523037156597   -5.49860221296229
H         6.08720080103261   -2.24191276480270   -3.20718808215566
H         3.44955685468641   -3.56825735916677   -4.13914150527001
H         4.09491483440138   -3.29736581494920   -2.58018538680335
H         4.31009960018389   -5.61905954696618   -3.18641931372681
H         5.94776126057190   -4.92101143409617   -3.23463422872182
H         4.30411494004426   -5.74516576561473   -5.62324156197066
H         5.90866121588342   -6.05372654314215   -5.20944665361332
H         4.64488599670511   -3.56739543194159   -6.40952272391246
H         6.17022565578580   -4.28001356476727   -6.80216615993381
H         6.81138084493627   -2.20299782225829   -5.74281288550328
H         7.25523403142376   -3.47505007819568   -4.64348807239526
