35
 energy: -44.214317297762 gnorm: 0.095438168963 xtb: 6.4.1 (025e99ea0bd20707e8cccc6e19fe66a0758c6dd1)
C         1.12556227803252    0.04770097327449    0.53323040813534
O         2.32255649533296    0.63197504345360    0.03673867985895
C         2.65057976969534    0.36263153829009   -1.26346202858884
C         3.92678943615983    0.68970593373671   -1.72387540680460
C         4.33359815134363    0.04256139723311   -2.89485938195833
C         3.48744364250367   -0.60339704750268   -3.80680441733778
C         2.13971767721369   -0.57619363578994   -3.42427021619810
C         1.73260608981714   -0.23384182851170   -2.12391264041413
C         4.11321773812856   -1.20548050882409   -5.04799318900746
C         4.88965384637893   -2.54146767080980   -4.90373158256967
C         6.39477521459469   -2.37535263451275   -4.63602226967031
C         7.04941260589896   -3.61777743874919   -4.03963993556867
C         6.32842100444680   -4.88046293946328   -4.46993541862189
C         4.90571351347134   -4.80387046110744   -3.95430315242863
C         4.31375731416896   -3.41700952877870   -3.77975983590916
H         0.27628436392393    0.64900910672613    0.19265455747808
H         1.20050411402864   -0.02211101357741    1.62295597477342
H         1.04301298721111   -0.98367571344773    0.17482628627707
H         4.80161334702051    1.16018781860993   -1.28364904464158
H         5.37604970045133    0.25152885331356   -3.12852683024154
H         1.36481473168144   -0.97440705187536   -4.07157847493679
H         0.69852547736754   -0.47803059277127   -1.89954306700606
H         4.89963578996053   -0.54051599160393   -5.43344637031064
H         3.44023094152640   -1.24179485895953   -5.91542197052935
H         4.73931713566883   -3.07850319814919   -5.85540743523453
H         6.71765611760678   -1.49157800825822   -4.07495794528042
H         6.81103449484896   -2.29720627219763   -5.65123511533629
H         7.09975357697345   -3.69647715460978   -2.94609271917228
H         8.05961472792449   -3.59661215869477   -4.46893976697847
H         6.88779892142605   -5.71460876488096   -4.02721827056578
H         6.43011705072179   -5.02799952606917   -5.55108694952452
H         4.85361030985689   -5.36019009470308   -3.01214365620664
H         4.23251818806070   -5.30953053364187   -4.65865917173826
H         4.63965941915850   -2.94077421117344   -2.84955391314982
H         3.21459165204612   -3.40380232847300   -3.82587255698026
