35
 energy: -44.222985661581 gnorm: 0.094030973849 xtb: 6.4.1 (025e99ea0bd20707e8cccc6e19fe66a0758c6dd1)
C         1.06430520127056    0.90928453440399    0.55676319644266
O         2.44798487831484    1.01345832427650    0.24813113356659
C         2.91683629905328    0.60721262374655   -0.97080687044315
C         2.12546991942568    0.26499797079495   -2.06821182442143
C         2.71305037542148   -0.30068881929911   -3.20409936838396
C         4.10560898248804   -0.44234469585211   -3.27891695727451
C         4.83026200426908   -0.23978286385444   -2.09684908050111
C         4.30360201062051    0.49150610988259   -1.01901785609171
C         4.77515799187736   -1.07186721236249   -4.48309836364958
C         5.30115027581594   -2.51052808652682   -4.23387319040512
C         4.07384411096194   -3.42817689110206   -4.10622881735553
C         4.31559494384625   -4.93341254989635   -4.04570154640067
C         5.61447296068072   -5.27876247883952   -4.74784618452209
C         5.89997929475313   -4.35826755735983   -5.91704030114840
C         6.22696405657388   -2.98209339635281   -5.36614429962963
H         0.87241829398271    1.14541813434645    1.60855057631070
H         0.72555144016463   -0.11962973503884    0.40000504771031
H         0.50148096265541    1.47770549559969   -0.19098827005198
H         1.04181267731948    0.33819796155362   -2.03996168915602
H         2.12689217198978   -0.77704861477804   -3.98798265821434
H         5.87691949748419   -0.52662772973678   -2.11371958925704
H         4.84508550541725    0.54355623095173   -0.07913541790141
H         5.63160658909594   -0.42726879937201   -4.72844304664366
H         4.06231161988772   -1.19838339672320   -5.30923780498706
H         5.93227753767327   -2.53147847544780   -3.32947577669952
H         3.60370266262881   -3.28345687927768   -5.08506792071189
H         3.41406582751132   -3.13787142771116   -3.27529493283571
H         3.54440340144999   -5.40658968001509   -4.66694255015725
H         4.28915028505189   -5.27263160259970   -3.00191720239887
H         5.59456427060563   -6.32369601292273   -5.08313552170309
H         6.45377192171637   -5.24609424821430   -4.04392303173433
H         4.96233536396845   -4.24067875116142   -6.47099655204606
H         6.68689109940718   -4.73111391121233   -6.58543903363280
H         6.25773135656333   -2.34483732264051   -6.25566854852079
H         7.23417664261786   -3.07799968393670   -4.93395133251425
