35
 energy: -44.227138691160 gnorm: 0.080880988006 xtb: 6.4.1 (025e99ea0bd20707e8cccc6e19fe66a0758c6dd1)
C         1.10784268250124    0.69080357145686    0.59525200834864
O         2.49169090279795    0.58927354566273    0.28649462128861
C         3.01273758755141    0.44570948215301   -0.96991565367965
C         2.28517317817368    0.61625713046360   -2.14857284378532
C         2.79984453458212    0.22324030704438   -3.38798561266210
C         4.04272573209392   -0.42355013070238   -3.43031740331561
C         4.82099065690776   -0.51905464558498   -2.26901625686987
C         4.30886013923559   -0.05756490247340   -1.04483326541140
C         4.62935993898148   -1.03037461791646   -4.68820121275958
C         5.17588385502967   -2.47123535893380   -4.50446741291998
C         4.06909564421595   -3.31260601553122   -3.84737677108640
C         4.70324723214159   -4.66951957037260   -3.55672444325036
C         5.91853239664518   -5.00745846387677   -4.39829264760357
C         5.76395324512266   -4.57409911817099   -5.84194932889128
C         5.60624179699902   -3.06439315973329   -5.85520747937315
H         1.04391893878824    0.69456441083876    1.68829179063369
H         0.52335938451960   -0.18333959492734    0.29153372380190
H         0.59087843535227    1.58398544740656    0.22921940540427
H         1.27062532573346    0.98530827515907   -2.02624854053005
H         2.19352239102655    0.27684968195057   -4.29046696593137
H         5.85739483268598   -0.82043844705926   -2.38343077813289
H         4.82723098942590    0.04211338072619   -0.09580824804260
H         5.36511535316744   -0.34307090969309   -5.13033570024562
H         3.83147041733427   -1.17441876688715   -5.42933970676216
H         6.00655981575422   -2.49667499323041   -3.77919126262425
H         3.16682482990154   -3.45376616771029   -4.45242556258671
H         3.72985500429462   -2.98169978815128   -2.85467710723116
H         3.97313499343113   -5.47888135205482   -3.68495471105506
H         5.07437974048457   -4.63202707440579   -2.52419859958997
H         6.25541618824421   -6.04868782378833   -4.31431576215544
H         6.79277975206917   -4.47783779625152   -4.00308222938014
H         4.88567828722235   -5.02976460142868   -6.31192045726340
H         6.65169628424280   -4.88360370530632   -6.40862442501954
H         4.93796691649956   -2.80370543628807   -6.68209677972952
H         6.57001160883233   -2.57631024196121   -6.06350722806260
