35
 energy: -44.221303523752 gnorm: 0.093345956609 xtb: 6.4.1 (025e99ea0bd20707e8cccc6e19fe66a0758c6dd1)
C         0.77276912640690    1.02336251937522    0.15643610503037
O         2.18701395380561    1.12641411392566    0.05659971457489
C         2.89598367019554    0.59299191201228   -0.98430842640426
C         2.21531651706320    0.04127078274959   -2.07057048143330
C         2.92221342533470   -0.54180521259246   -3.12689049670303
C         4.32367994718825   -0.51489660950461   -3.13403327974750
C         4.96493409756772    0.11965722083896   -2.06185218925770
C         4.28543759698388    0.68242831494788   -0.96848691053173
C         5.17733769995443   -1.17612125321774   -4.19643514474098
C         5.29559917293437   -2.70601026591069   -3.96409917784680
C         3.96853227082243   -3.45706842786558   -4.16273931901456
C         4.34679655035916   -4.93417987407319   -4.10889401946216
C         5.09587466690399   -5.31658657985321   -5.37064076756488
C         5.87259099394808   -4.12734893417512   -5.89814926922600
C         6.46151032975872   -3.30301392219467   -4.76770397396976
H         0.44647123450704    0.02679363853292    0.47142261806768
H         0.18629116051858    1.36002011129671   -0.70420148249152
H         0.48141901918889    1.67350335924950    0.98796347769017
H         1.13174489472300    0.11803946263672   -2.09174665905860
H         2.36235105884502   -1.04903904575664   -3.91062582192239
H         6.04822412869034    0.10217636618756   -2.12691844344155
H         4.82329659667170    1.05383883296385   -0.10127615662165
H         6.18263898553612   -0.74380194996947   -4.08838576377422
H         4.82774546415786   -0.92209009700880   -5.20634410300045
H         5.50389318459218   -2.93105481532215   -2.90454088478445
H         3.48694086696841   -3.06764894609684   -5.06635706847700
H         3.35610832667141   -3.29941671246366   -3.26267342349351
H         3.57119259449886   -5.70115645835971   -3.98740822500926
H         5.07947958138075   -5.01539617939478   -3.29536213237697
H         4.41965009859961   -5.74482249462187   -6.12166388381727
H         5.73902255700314   -6.20387976855968   -5.36231292266292
H         5.23306059523555   -3.52445726531557   -6.55190251063857
H         6.70171322759687   -4.35858806034804   -6.57938802788562
H         6.93011063454463   -2.48510011721846   -5.32423437135247
H         7.19191505068774   -3.84613925941169   -4.14965075675932
