35
 energy: -44.214256788261 gnorm: 0.123748091003 xtb: 6.4.1 (025e99ea0bd20707e8cccc6e19fe66a0758c6dd1)
C         0.88397303536212    1.05823267245541    0.19991231449978
O         2.23746166503283    0.62776275836159    0.14126454446946
C         2.67430295957931    0.20585998055473   -1.08422914890794
C         2.01884736837091   -0.25865804496794   -2.22539968556379
C         2.73511648661449   -0.60321868863856   -3.37593405930427
C         4.13258799454956   -0.54381527368669   -3.28412911278678
C         4.87906470173943   -0.18243388466995   -2.15469838213371
C         4.06638513503449    0.18017557529580   -1.06752739783600
C         4.84897674729115   -1.08433753362756   -4.50448569394669
C         5.66842802499632   -2.36134287126928   -4.17847472314599
C         4.76782535252281   -3.26840272616419   -3.32360041388903
C         5.15095771809040   -4.73396946667294   -3.50571336281141
C         5.04080110520245   -5.12189604695820   -4.96747129711351
C         5.21920487750581   -4.00574866737519   -5.97654352997823
C         6.25233148278445   -3.03792834343679   -5.42860740163122
H         0.28496671744514    0.14583459070138    0.11297826889041
H         0.64407499834512    1.77343801648299   -0.59313374249975
H         0.81422820576962    1.62836345541063    1.13216352493182
H         0.94059493826807   -0.15008672189720   -2.30320253992045
H         2.35097389184208   -0.85414351248982   -4.36307351042823
H         5.96408995074789   -0.15618127491608   -2.16405226307199
H         4.57928277892348    0.64482521370247   -0.23067059690518
H         5.53055362313542   -0.32727205751988   -4.91862353824458
H         4.09599184697518   -1.39234043633965   -5.24259857715063
H         6.53667619014309   -2.01584470115828   -3.59241042376693
H         3.74731463278225   -3.09718215419613   -3.68324501524450
H         4.78202373829970   -2.89018552004703   -2.29074712423561
H         4.57008239859142   -5.35443686808967   -2.81132338376957
H         6.21855343168810   -4.91755918285188   -3.32741907920663
H         4.11336610331271   -5.66653403950684   -5.18641229564450
H         5.79086465134497   -5.90311822320681   -5.13508499827528
H         4.31688716830944   -3.39662089115457   -6.09760921606856
H         5.47048356926739   -4.27244184546052   -7.01130689704199
H         6.45351564217093   -2.19663735681436   -6.09946486166362
H         7.07697789522631   -3.74469948867966   -5.25282682420566
