35
 energy: -44.219291182166 gnorm: 0.115637597122 xtb: 6.4.1 (025e99ea0bd20707e8cccc6e19fe66a0758c6dd1)
C         0.91355521541457    1.68026960696684   -0.03412712685423
O         2.21222310375700    1.12079657114393    0.11122421836491
C         2.72448594189831    0.42034242210838   -0.94595024056030
C         2.03568168387951   -0.18245296579738   -1.99944710310212
C         2.79309636875205   -0.64600210292257   -3.07969615702216
C         4.19400132481626   -0.65569009090083   -3.03220996350085
C         4.78466289261460   -0.40859190033957   -1.78581551681577
C         4.08571580070472    0.21384540496904   -0.73799911918316
C         5.01828315572562   -1.07884541002843   -4.23060319387361
C         5.38211992052712   -2.58723714616567   -4.26065857022520
C         4.13434789147497   -3.47541058925023   -4.12330603973950
C         4.52423999867399   -4.94579042093787   -4.00579564199343
C         5.75021305266759   -5.34097692156537   -4.80590530017901
C         5.92936400159802   -4.39213148610034   -5.97356831768424
C         6.18222274429636   -2.96683699938999   -5.51655755802409
H         0.22183580775196    0.84919099329339   -0.20637391100021
H         0.85619408232208    2.41928983588621   -0.83945352104843
H         0.62544164952942    2.08336397869482    0.94235188939030
H         0.96921177882050   -0.03324277476881   -2.14383400435050
H         2.25435789064018   -0.95638298096571   -3.97322715722490
H         5.82296978440388   -0.53669529243431   -1.49673975423292
H         4.66749487156282    0.53183707208760    0.12206307952313
H         5.89882507532762   -0.42040992007642   -4.24832181492936
H         4.45046618703363   -0.73711697081103   -5.10665583533644
H         5.94073947876648   -2.79355650126048   -3.33218039111522
H         3.50258479487804   -3.35370202406482   -5.00996564888028
H         3.55321257263124   -3.04575323625287   -3.29402197309407
H         3.59683394111458   -5.45733613921116   -4.29356700467837
H         4.56507921432419   -5.20602624856433   -2.94002638308250
H         5.58192858022311   -6.30281372663628   -5.30715541951809
H         6.59207468845587   -5.40181563697329   -4.10693076603966
H         5.04870736472608   -4.40032997993384   -6.62491113534716
H         6.82008602363198   -4.68841306395371   -6.54263154979643
H         5.88895602119385   -2.25549188972183   -6.29519616623927
H         7.18558825432687   -2.58377262962401   -5.27784160327396
