35
 energy: -44.218119853884 gnorm: 0.119965928686 xtb: 6.4.1 (025e99ea0bd20707e8cccc6e19fe66a0758c6dd1)
C         0.87482003166195    1.68561307196872   -0.07152016240429
O         2.08701131868465    0.98645522478741    0.17837175591672
C         2.74916516838249    0.41757874913265   -0.87452849006275
C         2.03059418342979   -0.05201279741604   -1.97489605745519
C         2.78700817021911   -0.57023523160756   -3.03072570001220
C         4.18331131940308   -0.69199952834579   -3.01086411704536
C         4.76592638527093   -0.24805515853427   -1.81633038977021
C         4.11876896873542    0.26129809417725   -0.67807690712970
C         4.99477881327019   -1.17572813315884   -4.19499858838507
C         5.48282914831526   -2.64893280424632   -4.19398728627939
C         4.19570885326111   -3.48912816157643   -4.23921938778734
C         4.52235444296835   -4.96072107646442   -4.00351118294223
C         5.69379527791327   -5.34589978325985   -4.88596316639126
C         5.92644861426683   -4.39245754012742   -6.04037208975135
C         6.22119083978020   -3.00757455424437   -5.49311813479059
H        -0.01302128008490    1.06993032062554    0.10598733317178
H         0.74868194797486    2.21105365676039   -1.02335690027570
H         0.78910552621109    2.42760271438167    0.72917339008842
H         0.96681297747231    0.16839517904955   -1.99099569429503
H         2.17464851517685   -0.94343322036678   -3.84969579587312
H         5.84668350614829   -0.29156485545838   -1.72617802575293
H         4.69732365168179    0.55530870537242    0.19262672685546
H         5.88159075623623   -0.52794526766492   -4.13889810489622
H         4.36348307830965   -0.95506311162433   -5.06645444698903
H         6.00910320389960   -2.92096088169284   -3.26354032044607
H         3.63003890117649   -3.31177828067687   -5.16045083313821
H         3.58681495411699   -3.10114836741088   -3.40930634013780
H         3.69048280723955   -5.61186371546539   -4.30112875881474
H         4.61003398170462   -5.08726678159729   -2.91651848472625
H         5.71464476900669   -6.37022148595708   -5.27970386037149
H         6.60565548757127   -5.22406657876293   -4.29042526426203
H         5.02906456137177   -4.35095356637423   -6.66714962303197
H         6.65831669681578   -4.86817240675352   -6.70600406851167
H         5.96143603118720   -2.18537031838877   -6.16750893677949
H         7.30813162960473   -2.87646993614812   -5.38431893747838
