35
 energy: -44.228299436416 gnorm: 0.084576381772 xtb: 6.4.1 (025e99ea0bd20707e8cccc6e19fe66a0758c6dd1)
C         0.76136700667357    0.97890740942837    0.27000041038315
O         2.17844892945912    1.02429016877100    0.16755722870273
C         2.73761584702420    0.43870903332821   -0.93475586357456
C         2.17213646499936   -0.38760217396358   -1.90692461878620
C         2.89158283318863   -0.96565190525027   -2.95751886322257
C         4.24540737422399   -0.66169782500498   -3.15665335908975
C         4.82250936431922    0.19882979801466   -2.21331712563144
C         4.05884784374968    0.79310267055300   -1.19472236944714
C         4.99126765138441   -1.14327848709605   -4.38401631815274
C         5.73837050461598   -2.46289100792940   -4.05388558464989
C         4.65286033974543   -3.42110463342561   -3.53605629657392
C         4.93961846743408   -4.88518796308296   -3.85554211469787
C         4.91986682772528   -5.17814390696610   -5.34320620896565
C         5.39447958255908   -3.96991026005035   -6.12471362200801
C         6.33490145280216   -3.08590336954609   -5.32571469615969
H         0.54293378291167    1.72504029364346    1.04097966016737
H         0.29029388262724    0.05623578945070    0.62321279934969
H         0.42974197721334    1.30564136093846   -0.72109773550709
H         1.14003640603669   -0.71283545534386   -1.80965124817954
H         2.28008155499064   -1.63048687925698   -3.56500033766837
H         5.85250558435181    0.51802291628473   -2.33692954898893
H         4.46880746438256    1.56223025361024   -0.54690414392273
H         5.73769258116416   -0.47208292904496   -4.83296137420098
H         4.15890249795034   -1.37179068699206   -5.06343747369719
H         6.56371342823750   -2.27478862933909   -3.34669270062582
H         3.68574286875375   -3.29457151884447   -4.03483081599890
H         4.53978443457590   -3.37016426273240   -2.44305369561507
H         4.16713556937992   -5.47564323717280   -3.34641922346372
H         5.87514547595367   -5.23081244004801   -3.39664388998376
H         3.92568506676978   -5.48773747642444   -5.69027368698796
H         5.54069205767094   -6.05609195469239   -5.55482148198117
H         4.55913982651773   -3.32203203730915   -6.41164932301400
H         5.88003748146818   -4.26880312967267   -7.06274242599026
H         6.64896039515631   -2.30814912160045   -6.02910692773505
H         7.26356217040997   -3.63705179142261   -5.11526123797905
