35
 energy: -44.226217665758 gnorm: 0.093828962204 xtb: 6.4.1 (025e99ea0bd20707e8cccc6e19fe66a0758c6dd1)
C         1.26450178607986    1.98285102797583    0.32003485152706
O         2.39257488068636    1.12346030361390    0.41788197103461
C         2.70386270440099    0.39390353263617   -0.69635045054495
C         1.97476824388847    0.21396547229061   -1.87266368191694
C         2.48977960105614   -0.41597507597390   -3.00995478965988
C         3.83806428834508   -0.79629833618629   -3.05859795308402
C         4.54058386448440   -0.74418494858519   -1.84732250563220
C         4.01530890621691   -0.07275425175749   -0.73056760808756
C         4.52561836130318   -1.24524382085941   -4.33153341027506
C         5.17191743711334   -2.65543005509300   -4.28464562296021
C         4.09693725514947   -3.75359946662982   -4.34027284268502
C         4.70588370465062   -5.14896057008765   -4.24030775781310
C         6.03411402254380   -5.22734894699443   -4.96764348058008
C         6.23680026093246   -4.16824089337682   -6.03209078731162
C         6.15465975782299   -2.76416434016475   -5.46105424648132
H         1.28036640275788    2.58860097632989    1.23198423160151
H         0.30733368711074    1.48947360285345    0.12407631419235
H         1.41955561951795    2.62102581187400   -0.55614836237595
H         1.02754093574410    0.69419640297528   -2.10202805624568
H         1.77666666437644   -0.59969995760994   -3.81163316461382
H         5.58875167173084   -1.02516947495650   -1.82614595680783
H         4.67928722192620   -0.05009583460281    0.12845042728233
H         5.37997789362080   -0.59743673166210   -4.57570771513938
H         3.90072556701171   -1.20189051935836   -5.23391478917281
H         5.72156516821255   -2.73416417999086   -3.33155405780971
H         3.55066734079903   -3.70860286947516   -5.28878079651275
H         3.46704442950072   -3.63274816703012   -3.44659182669598
H         3.94526291672949   -5.85415231444187   -4.59910295948943
H         4.90145973709379   -5.52898879864956   -3.22907919622577
H         6.12679217268059   -6.20309243790068   -5.46164427696642
H         6.88393832128403   -5.13697622165899   -4.28161928558487
H         5.37417463347326   -4.31998172657878   -6.68990728362966
H         7.06353450755808   -4.39380145788623   -6.71811875621373
H         5.85421356920518   -2.13267774933363   -6.30322530644295
H         7.17179532965692   -2.46563725328216   -5.16646508203205
