35
 energy: -44.216779435372 gnorm: 0.095900171479 xtb: 6.4.1 (025e99ea0bd20707e8cccc6e19fe66a0758c6dd1)
C         1.12651502646111    1.18248992166204    0.57468893061656
O         2.30093317111986    1.64498744060047   -0.07915618803409
C         2.80372416096886    0.87021210775811   -1.08791357415754
C         2.09032028360536   -0.22134834144786   -1.58512571565722
C         2.74051369182222   -1.08461426776306   -2.47254517334828
C         3.95926683970457   -0.70787692782409   -3.05357291326434
C         4.62110361372400    0.43517264509683   -2.58576152573212
C         4.09374847260850    1.17510468007099   -1.51418718221438
C         4.64778156065796   -1.43887363888475   -4.18769750703439
C         5.17781621778375   -2.84710393870879   -3.80759640325915
C         4.09511991766641   -3.90702454265321   -4.07025561834385
C         4.67500679852021   -5.26771635922809   -4.44454212188053
C         5.46375135104387   -5.20824728153841   -5.73825894798051
C         6.12220961164786   -3.86558202993581   -5.98223105437816
C         6.38916670017156   -3.04752567294967   -4.73171977157624
H         1.29497695794288    0.37313152026296    1.29259972501329
H         0.43152640599329    0.76860784974309   -0.16266054420953
H         0.66911984804739    1.98181468711149    1.16703624161013
H         1.09103959661774   -0.39652647569948   -1.19625550369111
H         2.30166899318815   -2.00789893594456   -2.84662249228063
H         5.67088345359635    0.58944919036425   -2.81427305644005
H         4.76858890933718    1.88364780242102   -1.04317805828190
H         5.48472705226898   -0.80822065223909   -4.52087069669142
H         3.90803506813239   -1.54213498290163   -4.99316314263899
H         5.61491306957458   -2.84544364080773   -2.79485813383311
H         3.59933948933936   -3.54802277214284   -4.97878318940919
H         3.38793685119436   -3.99609771647809   -3.23240488990286
H         3.91032374916593   -6.05063244001578   -4.52746147493663
H         5.35191214391121   -5.53786071920150   -3.62352091616970
H         4.91411347636851   -5.53078530417956   -6.63188572450436
H         6.24212097472047   -5.97341029578272   -5.63995302496360
H         5.32605767892065   -3.35657615731958   -6.53624000521032
H         7.04913655630415   -4.02674793407826   -6.54776924722413
H         6.83937920973047   -2.07126316532839   -4.93791272198633
H         7.17099565246277   -3.58977836640898   -4.17929649603349
