35
 energy: -44.224422946330 gnorm: 0.091111984332 xtb: 6.4.1 (025e99ea0bd20707e8cccc6e19fe66a0758c6dd1)
C         0.84673869168954    0.81280969156807    0.20450880894187
O         2.26528171488988    0.89585315678391    0.16558781594986
C         2.92462222656385    0.45760347335975   -0.94970333823386
C         2.25123764265266    0.29116730064209   -2.16070351360333
C         3.01641839274407   -0.14107475997012   -3.24843420000000
C         4.38322105166705   -0.44424607736747   -3.17899967814220
C         5.04635439571061   -0.10129328566713   -1.99321922818656
C         4.30651025653130    0.30613396002796   -0.87049570557375
C         4.96807023949027   -1.04795116238720   -4.43921351284606
C         5.21758335137657   -2.57155249478468   -4.28138968770261
C         3.87793521165653   -3.31557186707050   -4.40957265402919
C         4.09090292794216   -4.79027916985339   -4.08135850272323
C         5.50953584683361   -5.26616455960570   -4.32706463950580
C         6.17517864393126   -4.58647335434307   -5.50637765164780
C         6.08453818330668   -3.07235853994023   -5.44720506215072
H         0.53195690646698   -0.23414793369592    0.26474594269782
H         0.30257042478899    1.25611681677724   -0.63534325329219
H         0.50003728980801    1.25181866910490    1.14582438934353
H         1.19523615398904    0.53660481650166   -2.23205192655669
H         2.56281440743527   -0.38065306315172   -4.20854812868924
H         6.12382578423207   -0.07209531705614   -2.12073143032791
H         4.79582919194586    0.58772471411784    0.05717136498490
H         5.89057301396295   -0.50681721225003   -4.69488517126881
H         4.22666051119326   -0.88065916325643   -5.23230094473840
H         5.69979217517828   -2.83712337500075   -3.32554347715139
H         3.52316934332993   -3.26885509300139   -5.44497671719307
H         3.26284951055763   -2.73435531760850   -3.70679767523570
H         3.34865520612568   -5.32429959433083   -4.68837076116476
H         3.81266138981244   -5.06310333580748   -3.05500414692534
H         5.61995003326819   -6.34649315712191   -4.48643908814399
H         6.14026843658297   -5.07431885828825   -3.45163937634785
H         5.76772446221128   -4.86623510250916   -6.48391805983454
H         7.23656658226333   -4.85618536474771   -5.58195895575102
H         5.53463285190930   -2.78337375323971   -6.34853033224234
H         7.01335407024173   -2.48416511341068   -5.48957851099239
