35
 energy: -44.222625847902 gnorm: 0.085007708229 xtb: 6.4.1 (025e99ea0bd20707e8cccc6e19fe66a0758c6dd1)
C         2.34820971576515    1.79765245767266    0.77517010622890
O         2.03563804910308    0.52575307309155    0.22267912486475
C         2.57139262808770    0.17456898402266   -0.98575119308661
C         1.76343405837202   -0.44010058820422   -1.94338029832404
C         2.36680758815929   -0.95587487853284   -3.09464485981688
C         3.67861581303868   -0.60719511173974   -3.44459499017513
C         4.38893225128673    0.23934526782206   -2.58305121835958
C         3.88906523656022    0.50039363166843   -1.29624853234335
C         4.39368189001022   -1.17895507791558   -4.65141657676124
C         5.28071416175020   -2.41869767703082   -4.36031832475591
C         4.42267016304483   -3.53091218118005   -3.73470485143536
C         4.15054481035640   -4.77607120740365   -4.57337534179794
C         5.48875688384497   -5.34615377542326   -5.00180512555878
C         6.59592211884370   -4.31283712658154   -4.95404012777793
C         6.11117932665008   -2.99038315016207   -5.52007958461788
H         2.04307118694345    1.82265107897216    1.82640837732430
H         1.71214219186700    2.50319848722170    0.23146549156477
H         3.41751717019533    1.99935759552315    0.65309483019364
H         0.75466340401396   -0.70499433585925   -1.63894247440748
H         1.74914539492880   -1.56626456027222   -3.75106769648453
H         5.38369780391950    0.60115771660653   -2.82302981687128
H         4.53216559506252    1.07498116779468   -0.63627606194152
H         5.00859585843281   -0.41815122678727   -5.15367509661720
H         3.64632462734120   -1.48020800156251   -5.39798637305037
H         5.98451479870467   -2.14018287039195   -3.55795345447542
H         3.50483717705470   -3.04314649773904   -3.38862668484124
H         5.00060910352298   -3.80106106405893   -2.83857878463740
H         3.63482513017698   -4.45070381581961   -5.48592268128490
H         3.53101155022991   -5.46182439005856   -3.98077450359316
H         5.36221651195627   -5.68194325227465   -6.03907767801419
H         5.83933359738676   -6.23858793893698   -4.47109334351885
H         7.46956563043909   -4.77401978968505   -5.42725082200436
H         6.88715811140983   -4.13732094170276   -3.91030782321098
H         5.37016924016376   -3.25176096982541   -6.28223508545620
H         6.92621748076603   -2.32252899837570   -5.83654380797562
