35
 energy: -44.225110987516 gnorm: 0.094507217955 xtb: 6.4.1 (025e99ea0bd20707e8cccc6e19fe66a0758c6dd1)
C         0.99942593815826    1.49146844127885    0.29698313757367
O         2.33543694098977    1.00752556572802    0.33634396305043
C         2.89802051397759    0.60341965255955   -0.84300552565275
C         2.08617864468742    0.21403943269273   -1.90929116849857
C         2.68386441415993   -0.53827367271519   -2.92530767981999
C         4.08311905121528   -0.60684972729898   -2.97292376107667
C         4.89957480744072   -0.23628587724697   -1.89611357615957
C         4.28427394776557    0.47276384960087   -0.85087303748180
C         4.78137675341322   -1.16326359691267   -4.19664231152360
C         5.17144339058520   -2.66267641639098   -4.28683853622732
C         4.01048069117558   -3.66762268252842   -4.20376371943622
C         4.49291998835649   -5.11248224100944   -4.29021934662893
C         5.87150106092457   -5.26188200518501   -4.90385743258910
C         5.99678829974452   -4.35630934556888   -6.11219551083787
C         5.93717088866575   -2.93156875575895   -5.59179108481734
H         0.87448887099144    1.98734675537246    1.26514210468421
H         0.22331272767070    0.72107966517796    0.25070983608824
H         0.91609330460707    2.23792229189904   -0.49980296310337
H         1.01079809576724    0.20273406858276   -1.75470077714379
H         2.10815474563399   -1.04627303029605   -3.69697349147726
H         5.97080680906667   -0.38839762632291   -1.98202342167283
H         4.89705702190853    0.64628419769262    0.02871787426763
H         5.74687078995846   -0.64106721530359   -4.26250219287480
H         4.22941512344792   -0.93171564673707   -5.11772133491751
H         5.84124034746303   -2.89374753466517   -3.44145496255810
H         3.22477307909069   -3.50029700410550   -4.94859155827509
H         3.51729109847450   -3.48349894753077   -3.23789714548339
H         3.76297062015065   -5.67355943295246   -4.88766363537109
H         4.46907764798917   -5.60315594337014   -3.30842226979004
H         6.07333522028054   -6.27272598755232   -5.28089695314928
H         6.61222330684014   -5.02525323853661   -4.13163004119178
H         5.34315570882172   -4.56458018064739   -6.96616183781101
H         6.98688045948372   -4.55553580223367   -6.54234407754234
H         5.54532805123727   -2.32883152678741   -6.41729840742024
H         6.96471952199924   -2.55443197749815   -5.48053632180765
