35
 energy: -44.215396372158 gnorm: 0.087117584005 xtb: 6.4.1 (025e99ea0bd20707e8cccc6e19fe66a0758c6dd1)
C         2.63169201609588    1.98531509295594    0.65959755130898
O         1.68983002654749    1.28697084864199   -0.14407320744140
C         2.24324206860671    0.45031327276870   -1.07380772820757
C         1.47420254345504    0.16464591590659   -2.20280799555280
C         2.02283626225757   -0.54585436206679   -3.27504081867974
C         3.33905544089505   -1.00693722163060   -3.13413950747429
C         4.09880215034095   -0.75150487633119   -1.98480187876486
C         3.54308196619155   -0.02428489274569   -0.91887477209328
C         4.03102663855504   -1.48785337339182   -4.39292575913275
C         5.03896066450012   -2.66459477433262   -4.30418553542014
C         4.38938799940330   -4.04810904216652   -4.13508069399652
C         5.47451626261693   -4.98996918877389   -3.62201391449864
C         6.45207376331982   -5.02003032885155   -4.78082167620396
C         6.30410827405994   -4.07776756643141   -5.95814352997481
C         5.85609081371626   -2.67089615094189   -5.60564681717582
H         3.08352621709096    1.35959549763861    1.43622950911390
H         2.06498134251194    2.76153190135503    1.18335157940325
H         3.37730935349363    2.51466206624487    0.05722529455608
H         0.47540048542428    0.59081146925069   -2.23811650492219
H         1.51612982717494   -0.64237000839528   -4.23363688067749
H         5.08107134964813   -1.21316980080180   -1.97648342714376
H         4.02553262634808    0.19538182362343    0.02890181616134
H         4.64193492933996   -0.64575674335899   -4.74911341843124
H         3.24130015635811   -1.63192566975159   -5.14275101945708
H         5.68226051424170   -2.48381268297756   -3.42658747559929
H         4.07738612584914   -4.40005819103242   -5.12446912984768
H         3.57869841083609   -3.95017288251039   -3.39804157422038
H         5.09315730362538   -6.00155708476023   -3.43272934580975
H         5.76374523203461   -4.62565385366724   -2.62759167924625
H         6.37131117137226   -6.00630398232851   -5.25563013286639
H         7.47797535769798   -4.88685799532475   -4.41917431727466
H         5.75345708134307   -4.56842173426630   -6.76802780911360
H         7.30054054861838   -3.99358964868306   -6.41095503329802
H         5.36836240119180   -2.17978435616714   -6.45371846407916
H         6.82090958698805   -2.17947666691869   -5.41046076763681
