35
 energy: -44.223687353915 gnorm: 0.087612730887 xtb: 6.4.1 (025e99ea0bd20707e8cccc6e19fe66a0758c6dd1)
C         1.18909458977190    1.00284265975307    0.57537813252104
O         2.53336784924904    0.58992222732407    0.36776915917185
C         3.04619901503898    0.40120268567395   -0.88604748615642
C         2.34742097821012    0.69458104900606   -2.05792957042086
C         2.73967114219154    0.11225633573096   -3.26728086970541
C         3.99257044486280   -0.50271592545739   -3.39741914169287
C         4.84275521889309   -0.48237552855812   -2.28377204791876
C         4.28838816347081   -0.21323543766427   -1.02118929611425
C         4.26903870613382   -1.15829506238410   -4.73474057242553
C         4.98109213426596   -2.52443828247098   -4.54723379326153
C         3.93930966977287   -3.56272696487697   -4.09857050532049
C         4.73267000783875   -4.77630335587011   -3.62354090080623
C         6.05874405498980   -4.90900589948312   -4.34691869030506
C         6.04202388302127   -4.46705802163299   -5.79613991539071
C         5.70304662502978   -2.98764212882385   -5.82228938826835
H         0.98757625229805    0.88496714353680    1.64511271471112
H         0.45564526240415    0.43680409612781   -0.00741190209860
H         0.98732316527240    2.03944270781049    0.28597461467794
H         1.42202945482435    1.23340475788344   -1.87411210716503
H         2.17597338065143    0.38967742042859   -4.15624401572057
H         5.80496105615648   -0.98429550633914   -2.30088177939761
H         4.88830907054314   -0.46910536469543   -0.15290474785500
H         4.93707564082574   -0.47597526277486   -5.28005852479391
H         3.30135818640677   -1.38065919205181   -5.20464617560907
H         5.69315861006734   -2.36359194247508   -3.72032085264452
H         3.29258780033913   -3.86301811862608   -4.93024285545210
H         3.36940986950178   -3.05708541259677   -3.30511186958651
H         4.12898399178034   -5.68151686196981   -3.76750297558727
H         4.85399633109957   -4.63437142784494   -2.54169530437152
H         6.39929534420441   -5.95233491609458   -4.33310676722952
H         6.79855884898102   -4.28207208418168   -3.83640343415879
H         5.26741580812673   -5.03511376168981   -6.32260530116893
H         7.01988091515292   -4.71881791371102   -6.22673722011548
H         5.10680309105932   -2.67090910408620   -6.68395588938478
H         6.70836227538823   -2.56163626114542   -5.95766077477926
