35
 energy: -44.225577835453 gnorm: 0.097778495185 xtb: 6.4.1 (025e99ea0bd20707e8cccc6e19fe66a0758c6dd1)
C         0.83278675478962    0.80559255245774   -0.01269562643131
O         2.25390414181322    0.78203406142120    0.01066588245004
C         2.82758713768513    0.37962430569507   -1.16390693547306
C         2.16271180761955    0.15603740541084   -2.37039728237120
C         2.89389698380361   -0.29461223826917   -3.47392616573413
C         4.28778338002410   -0.37547158456826   -3.34972464232189
C         4.98920474848980   -0.02526502054108   -2.18834563203162
C         4.21212992021640    0.27687660575588   -1.05753193353038
C         5.14035761017147   -1.18499934440316   -4.30493631422465
C         5.54003263282846   -2.58327953590098   -3.76308895095273
C         4.30178872487813   -3.42443100489496   -3.41113857351661
C         4.51292251385272   -4.88688259186217   -3.79126918927180
C         4.78347125778326   -4.97871450537719   -5.28047301880108
C         5.67368079319886   -3.94501739969785   -5.93989467993104
C         6.42889615471141   -3.29740943151985   -4.79337192034858
H         0.44257116280024   -0.09453020083899   -0.49885113582067
H         0.51971868711271    1.71990948429379   -0.52650954060118
H         0.59901471408685    0.88853953627819    1.05382966810113
H         1.10252724160164    0.38440507323899   -2.43617133646747
H         2.41710806086064   -0.59324712244576   -4.40583959314656
H         6.07271180679697   -0.07942420636454   -2.15464493338314
H         4.55800627802358    0.41873849565085   -0.03795489213475
H         6.05231706388143   -0.61994282674415   -4.54627925764098
H         4.69817594361631   -1.29321773627123   -5.30464968570227
H         6.13662511876309   -2.46314355500280   -2.84312157394608
H         3.45334602083138   -3.12302592242063   -4.03516005284386
H         3.99278483334276   -3.23818439928559   -2.37197325308860
H         3.59055659735614   -5.39385398717061   -3.48015104957412
H         5.31570602613663   -5.32161688971225   -3.18151566079380
H         3.84999065605743   -4.87599656734615   -5.84859657766698
H         5.18975191803684   -5.97161709936962   -5.50425467283785
H         4.97353700107667   -3.22559834419503   -6.37819330977317
H         6.32933946277119   -4.41800883578086   -6.68245260205934
H         7.18592802589952   -2.55755881631610   -5.07233273351198
H         6.99000917464408   -4.04212458700669   -4.20940489469834
