35
 energy: -44.215716939163 gnorm: 0.106830332566 xtb: 6.4.1 (025e99ea0bd20707e8cccc6e19fe66a0758c6dd1)
C         1.61104986185119    1.16966967815909    0.84976913696369
O         2.70572991208380    1.53927286893440    0.02167225257599
C         2.89869791709908    0.78338557981009   -1.10174433868917
C         1.91972765691966    0.01651669379989   -1.73514672575251
C         2.25272730505033   -0.61508934840830   -2.93751018178657
C         3.58383821927314   -0.64690740779041   -3.37570517169371
C         4.52522293716612    0.13058040665742   -2.68814044451027
C         4.21738920783601    0.87763349633011   -1.53878213498736
C         4.11414834768064   -1.46706281206056   -4.53361863625937
C         4.75402937480394   -2.77448692856291   -3.99536162067497
C         3.97226340690317   -4.06065749235392   -4.31041729757852
C         4.90234718483606   -5.26996010920884   -4.29111060621859
C         5.95045458541477   -5.21672310870504   -5.38563994132992
C         6.43485093816382   -3.80934287664378   -5.66933115186698
C         6.20801246229384   -2.89700270531261   -4.47750881894271
H         1.49926546773795    1.80340783321065    1.73561142260443
H         1.81243621592891    0.16289950572964    1.22904365384006
H         0.64793858988769    1.09445010386000    0.33424565399463
H         0.99289535727922   -0.14700038060023   -1.19227162239203
H         1.45583936571489   -1.26473542460745   -3.29514502748272
H         5.56909296555554    0.02400239580896   -2.96568860861714
H         4.95873560251814    1.50911382704428   -1.05822965117666
H         4.77951281100542   -0.87885183075169   -5.18208088530470
H         3.39592215692833   -1.66718498916434   -5.34031865005857
H         4.77268425175948   -2.71150535661244   -2.89428009072910
H         3.56320674660685   -3.98629493482546   -5.32394860375229
H         3.06938655722126   -4.10352760141128   -3.68351115462051
H         4.27452083903185   -6.16845536368012   -4.34691143227917
H         5.33962088612561   -5.35156190572317   -3.28742365361940
H         5.58981429930081   -5.80215742071741   -6.24115536238389
H         6.89784262196793   -5.68967484544397   -5.10320352914156
H         5.86085145502913   -3.51012048044296   -6.55299474470463
H         7.49104864323936   -3.80816909401008   -5.96840720614725
H         6.58848433806710   -1.93632158556131   -4.83893413216119
H         6.83419861893266   -3.29109049188557   -3.66322896429381
