35
 energy: -44.227597610404 gnorm: 0.102630597770 xtb: 6.4.1 (025e99ea0bd20707e8cccc6e19fe66a0758c6dd1)
C         1.20903674627564    1.30293888881164    0.36330220232077
O         2.50093212573468    0.70994281470637    0.36941559787451
C         2.87001993495778    0.26619098874774   -0.87055439705841
C         2.06726711684078    0.29196160830394   -2.01186637682475
C         2.63217541401694   -0.16145957964854   -3.20801882922545
C         3.99842684778729   -0.44803860486391   -3.33495584750792
C         4.74255234262310   -0.52678523678425   -2.15025589415557
C         4.21807117875281   -0.07797391672889   -0.92658830583039
C         4.65481236773491   -1.04795017194234   -4.56129653850399
C         5.17247652420049   -2.49183826521900   -4.32520932809620
C         4.01931724190079   -3.50530545000464   -4.23711409319187
C         4.46269107499683   -4.93235023836826   -3.92921115287491
C         5.81456800903529   -5.20371596695563   -4.56020019003471
C         6.10544962552688   -4.35200657966507   -5.77914180190707
C         6.08245428541472   -2.85861942637697   -5.50798357403598
H         1.00650275261176    1.52963236533144    1.41517025911584
H         0.37520618527478    0.64392695937023    0.10172683096023
H         1.25846484948907    2.19121196060829   -0.27508136888181
H         1.01434176275585    0.55069785652686   -2.08167380866607
H         1.97651929145636   -0.41404206702889   -4.03945748736757
H         5.79704567371362   -0.77997482164800   -2.10558659690094
H         4.72249800424028   -0.14218494402050    0.03295487218908
H         5.49426751697206   -0.36063815672678   -4.74052426915441
H         4.01490354283729   -0.98666946620401   -5.45204006899815
H         5.67169876344947   -2.45831092991419   -3.34217916825270
H         3.44884259318433   -3.37733325344325   -5.16355062292991
H         3.37090875305817   -3.18497961612032   -3.40826334751253
H         3.74792206117682   -5.57477112227347   -4.45928099841574
H         4.41264740970443   -5.14468855777100   -2.85326379738864
H         5.88569358500278   -6.28092012638661   -4.75837621581530
H         6.62615359515103   -4.89431398896116   -3.89192104408621
H         5.34046008904383   -4.51245510682019   -6.54655178032910
H         7.09992636863538   -4.57078377115427   -6.18920765736166
H         5.74233005318964   -2.29336254431355   -6.38153694101814
H         7.09055668264349   -2.44919940581521   -5.34497813726879
