35
 energy: -44.221809293243 gnorm: 0.093799015856 xtb: 6.4.1 (025e99ea0bd20707e8cccc6e19fe66a0758c6dd1)
C         1.00470379580734    0.23737239991669    0.41590738246957
O         2.39754834635767    0.40437906982750    0.18619386834473
C         3.00498422563486    0.28551892811377   -1.03346233133059
C         2.24990366750902    0.15778631617223   -2.20017023160189
C         2.93106965607063    0.03121936449378   -3.41486642937264
C         4.29915621486678   -0.27004003554740   -3.46452330643917
C         5.01410859066516    0.07122426242765   -2.30874657211094
C         4.39612048267095    0.32964886443797   -1.07376391507966
C         5.06456695694132   -0.88270752366025   -4.61926682051027
C         5.33194951327855   -2.38643582948466   -4.34388696904024
C         3.99442803895003   -3.07224437399535   -4.01930132542409
C         4.24493548784179   -4.50924373664322   -3.57195327563919
C         5.40425915239286   -5.15799254348782   -4.30301511118741
C         5.65606263042789   -4.60283418039290   -5.69018267943571
C         5.92356866615452   -3.11418686565280   -5.56122346072069
H         0.75154450573278    0.27577261712931    1.48045995355255
H         0.62085637380439   -0.73275321800906    0.08498553698531
H         0.35429966486213    1.02046442036930    0.01248806178959
H         1.18801339480301    0.35373279789424   -2.07990586453830
H         2.44899410940017   -0.00139383257076   -4.39032161013945
H         6.07991937749288    0.26641507892956   -2.37202814247100
H         5.01395089551470    0.37565270955997   -0.18187716757233
H         6.02725965896354   -0.37612693613395   -4.77990390516918
H         4.43812349062970   -0.78322505564253   -5.51611383626750
H         6.01260699058302   -2.44761636674841   -3.47805927166034
H         3.41033337510616   -3.04490727072010   -4.94568621914142
H         3.55660844154991   -2.48051752494237   -3.20186073636771
H         3.37085910787034   -5.14698931645980   -3.75592185853141
H         4.44291457533779   -4.51082396423066   -2.49211234638095
H         5.20749619074934   -6.23744233933953   -4.27519666660783
H         6.38828144179033   -5.04852562211253   -3.83321207185610
H         4.71649853958347   -4.66090407959401   -6.25028803381790
H         6.48939609118474   -5.07805774883300   -6.22377369127579
H         5.57006879107629   -2.67439863465870   -6.49926369826183
H         7.00962634135669   -2.94372960778012   -5.60468648366828
