35
 energy: -44.219006790354 gnorm: 0.107317805309 xtb: 6.4.1 (025e99ea0bd20707e8cccc6e19fe66a0758c6dd1)
C         0.78940043190517    1.28119656944873    0.21682502411189
O         2.18173883810094    1.00157895317983    0.15451029571934
C         2.72164873377805    0.49014851831488   -0.99335872237886
C         2.00066050338775    0.01993720913990   -2.09187887525811
C         2.69001077868920   -0.62792507457047   -3.12171550989741
C         4.08773747379690   -0.53668249064629   -3.17573758485741
C         4.80193317185326   -0.12784841777360   -2.04162253900249
C         4.11038694346896    0.40396715457966   -0.94034580484632
C         4.78644280346768   -1.11856067531634   -4.38729688584854
C         5.48846565942830   -2.49721058273403   -4.26476328834657
C         4.57630387143684   -3.55179331025357   -3.61632750950243
C         5.25056453643628   -4.91852446789595   -3.68885266217637
C         5.29050473536794   -5.38252507925710   -5.13192784353584
C         5.59266854056388   -4.24232320821708   -6.08296747063267
C         6.26606924831580   -3.02182004859666   -5.48199802453669
H         0.11194871165672    0.49061017728663   -0.12209779322922
H         0.48950377882335    2.14409252942896   -0.38605502895488
H         0.54186632520538    1.44563130312853    1.27071963563043
H         0.91529036416389    0.05030833766711   -2.13084775083664
H         2.07176973497006   -1.14505251460804   -3.85337821751985
H         5.87424738635570    0.02558168134364   -2.10987145330016
H         4.66978583787239    0.72496245651472   -0.06665966811067
H         5.58699049042120   -0.45007712175963   -4.73580579105420
H         4.04491926285436   -1.02872752460885   -5.19273807265615
H         6.28262171082176   -2.40021486877816   -3.50541935298704
H         3.56246151107095   -3.44369345880212   -4.01700311015635
H         4.35301962177048   -3.29533671006223   -2.57018702276362
H         4.65674232719904   -5.61144806759472   -3.07909414951205
H         6.19718787522700   -4.81068349573549   -3.14339027049635
H         4.37798088996858   -5.92740849156281   -5.40597835595365
H         6.05033185859885   -6.17164828139601   -5.16266996006954
H         4.62036806973213   -3.93899932527637   -6.48607689830070
H         6.06847538386813   -4.50658741515306   -7.03626371611094
H         6.36144810041229   -2.34106259279410   -6.33391789991866
H         7.32513686444938   -3.23064249197962   -5.26931296668607
