35
 energy: -44.212883048294 gnorm: 0.101533218178 xtb: 6.4.1 (025e99ea0bd20707e8cccc6e19fe66a0758c6dd1)
C         1.49986362525641    1.90259491551873    0.68818643075232
O         2.77082940686259    1.48946518657431    0.20378455414015
C         2.95769721262115    0.71676822750686   -0.90917856370697
C         2.14329410237663   -0.31379446577811   -1.38072639438778
C         2.42620249143198   -0.99407541883998   -2.56928582399903
C         3.63189126833604   -0.79672423551473   -3.25649076224984
C         4.58687944236474   -0.00478754700853   -2.60512939728379
C         4.21200147091211    0.79047961024227   -1.50927762623681
C         3.83250444432247   -1.66169363655488   -4.48377623409020
C         4.62139888135839   -2.93318849837097   -4.07210576769406
C         3.99330847477115   -4.12662787551375   -4.81092762619236
C         4.88590400765352   -5.35316657976321   -4.64747295034611
C         6.21393183103307   -5.13138136201040   -5.34497649055451
C         6.51420814523407   -3.66893496958953   -5.60367387195642
C         6.11679154435087   -2.82202397589227   -4.40823981821128
H         1.80754518548288    2.73148518268868    1.33402645740553
H         0.94306027908346    1.12896262868245    1.22619657468252
H         0.81438311826519    2.20141577454560   -0.11170627106508
H         1.20471311315880   -0.37356419683215   -0.83670191229523
H         1.68461375152961   -1.68536921061301   -2.96568479508384
H         5.53586487799837    0.17065255474851   -3.10182237059433
H         4.85068238995868    1.62129681643672   -1.22445832110011
H         4.27027105455020   -1.07621727222131   -5.30522808765244
H         2.80094205591401   -1.97656693746704   -4.69209455958667
H         4.42430441344574   -3.20276381523384   -3.02083123438580
H         3.83285259083895   -3.85133761000469   -5.85905549645074
H         3.02537719646507   -4.55801590291320   -4.51588664982802
H         4.43816093794430   -6.24941458248661   -5.09562363725577
H         5.12637216648412   -5.57737658629997   -3.60001909397651
H         6.18113801898986   -5.72164759596245   -6.26975307212906
H         6.99684410091551   -5.61120821969065   -4.74680232753035
H         5.90309310097445   -3.39162792363097   -6.46941632878467
H         7.56233923996290   -3.40245197851300   -5.79184794635446
H         6.23417440876986   -1.77028852617658   -4.68818468817147
H         6.62204353245977   -3.07653438265391   -3.46462397869135
