32
 energy: -49.290789201600 gnorm: 0.131459312712 xtb: 6.4.1 (79825abcba525fcdf90b791dcacef51065a7a4e7)
C         0.91031362002656   -0.58607569860962    0.67378493882043
C         2.03840927695387    0.33839689203057    0.21399975022960
O         1.43911757371362    1.19997139123747   -0.76524042407596
C         2.15098556780860    2.16557416101014   -1.39825350192104
N         2.99376220370896    3.03731499775717   -0.96848028676327
C         1.98205636470988    1.96302280001611   -2.94691382382559
C         2.92381040690898    2.95146763730716   -3.68853778249562
C         0.53557056034979    2.13846933012079   -3.46834810785190
C         0.64769377168757    0.75939491101144   -4.14331494405479
N         1.91925933025682    0.55918298137247   -3.46566245288036
C         2.23227122345500   -0.58197361618623   -2.70653177683336
N         1.92730996134532   -1.82546142911712   -2.90670057109714
C         3.49215370722670   -0.36316134801443   -1.89033815741567
C         3.17004046630317   -0.47276975818836   -0.43636563985859
N         3.92523023097057   -1.23189852217705    0.30047787898503
O         3.54612279234074   -1.25048533651879    1.63586287938019
H         0.04195797527527    0.01307000673410    0.97001636448519
H         1.33228731445890   -1.15622151537355    1.50635186248594
H         0.62126370317101   -1.39983964111170   -0.00032801479902
H         2.29068129786854    0.85655443803081    1.14617001929115
H         3.10000696736435    3.05040805739636    0.05536306018074
H         3.96749850451749    2.66714233644309   -3.50150063355230
H         2.83760020683222    3.92537813502582   -3.19200480288545
H         2.84896284699603    2.97660343086961   -4.77896035714235
H         0.40310038131274    3.01759407175466   -4.10254986423515
H        -0.18526797253747    2.22960704334029   -2.64531691234966
H         0.79916796640822    0.88065565281105   -5.22472761929741
H        -0.11024840195126   -0.00924728043636   -3.98865237107927
H         1.18154497521356   -2.06313865938581   -3.55666359411454
H         3.84688829464196    0.67031358959162   -2.01082886135031
H         4.28882471922468   -1.09288997824975   -2.06383207159588
H         4.13199911983703   -1.90441366167940    2.06344912469946
