37
 energy: -49.854307213612 gnorm: 0.315090239748 xtb: 6.4.1 (79825abcba525fcdf90b791dcacef51065a7a4e7)
C         2.47814640474691   -1.34744291972362    0.37969995789188
C         2.92217910975162    0.10010434489755    0.50413126794817
C         3.03717207220049    0.88604875431731   -0.86807012017928
C         1.55053220041216    0.67843831516751   -1.74834162826468
C         0.99919794025474    1.90176163977807   -2.46232472736104
O         1.78129793587860    2.43120083334200   -3.45995973729799
C         3.09659006451689    2.84914385641384   -3.19196757737334
C         3.27959477873668    3.37013255360571   -1.77011805482114
C         3.29864481037422    2.35496547777187   -0.53751231840710
C         2.31700496026627    2.79735538284685    0.53536711556912
C         1.84617471603226    3.43767996002101    1.56897190509321
C         4.55659781422718    2.46656088457495    0.30836756688898
C         5.58066114931298    2.90864275943049    0.98356690100971
C         4.21740073522467    1.83755675872342   -3.56317182697142
N         5.17795019474487    2.64535031847152   -4.47095139491194
C         4.96342548467454    1.21183889181456   -2.40923706098697
N         4.17065062337378    0.28912888348328   -1.61085525004609
H         2.90485287275947   -1.72735727363651   -0.54630356298711
H         1.39210281604851   -1.47645419234508    0.28888468882872
H         2.95646350531489   -1.89908794091429    1.20080672934712
H         3.94170052662816    0.13153830809887    0.90353244290157
H         2.23154627245563    0.70323493334211    1.10432406779261
H         0.78868429636249    0.32242238753689   -1.05948384358118
H         1.77442194005636   -0.08353769109843   -2.55533050193372
H         0.72641168645165    2.63943125941566   -1.68446802578993
H         0.04073340207789    1.67693596490919   -2.96800339555343
H         3.20586575505896    3.66331152712002   -3.91349390344553
H         2.44787933829078    4.12077517938752   -1.63211137912650
H         4.19109383539320    4.06865594524988   -1.64824577069864
H         1.13698848669798    3.82649264264735    2.26372501989719
H         6.31610660306031    2.98094698594334    1.75519293344851
H         3.83475410953638    1.01404089044071   -4.17083336458049
H         5.41367424358926    3.45943146900687   -3.90308547057009
H         6.03873247010470    2.13642690563235   -4.68616488188185
H         5.44604640567660    2.00804927568485   -1.81152269776624
H         5.82923649257412    0.64085677357492   -2.77199089726767
H         3.78634001349520   -0.49406018319318   -2.18046325582404
