39
 energy: -54.522633778410 gnorm: 0.118406185477 xtb: 6.4.1 (79825abcba525fcdf90b791dcacef51065a7a4e7)
C         3.54433556091249   -1.64917914726679    0.31172011695152
C         2.63929451750257   -0.71844532108932    1.12546174979882
C         1.25421631766389   -1.30450670707187    0.81178137398480
O         0.13187345523283   -0.47125788271376    1.08502377024249
C        -0.39142257416128   -0.37423763902374    2.39429227247831
C         0.60994601698246    0.02190347741808    3.46303815317569
N         0.78659797995871   -0.69973569898496    4.52233235808122
O         1.12124584863002    1.25572137200337    3.47033756501388
C         1.30617674278732    1.98877388034049    2.24439592461060
C         2.70202546010088    1.81145786627362    1.62189091732433
C         2.85400059167142    0.70141839887115    0.55230395590154
C         3.89059326185617    1.68754601030117    2.61319564613746
N         3.69954784472223    2.26387890387304    3.84768789886161
N         4.97422226408435    1.22221599951069    2.09034167723783
C         6.14018417240888    0.93564127827132    2.93938962196542
C         7.47011411795129    1.42657335180086    2.34426898900460
N         7.66294810467203    1.12135943794875    0.92484964899226
H         3.25371857483457   -2.70272745726857    0.37297107203255
H         4.58675859066276   -1.60742507402712    0.64577650986002
H         3.59421568724674   -1.36405979077397   -0.73716298660238
H         3.00313036680752   -0.90785382851010    2.14871411487133
H         1.06099609948495   -2.30044898730715    1.20395872865067
H         1.13533414899718   -1.33986239420519   -0.27855230933127
H        -0.78859784206283   -1.37506946450134    2.60228565062535
H        -1.24170209602851    0.28751705281323    2.22684996601147
H         0.29213884713021   -1.60480913650975    4.52798020055471
H         1.33423954986933    3.02305751671453    2.61669436961374
H         0.43549807242013    1.92692220141732    1.58946705489803
H         2.90503879307085    2.78855276341095    1.14793209715948
H         3.87886124644454    0.88234442854216    0.20024196096529
H         2.17382948345860    0.84160719419152   -0.30063697494936
H         2.74406588845019    2.13494774214031    4.17875833890629
H         4.24017339907061    1.81475943546850    4.57671137170397
H         6.14389165968667   -0.14701861429010    3.11394580208313
H         5.92039594620166    1.24748881771384    3.96772884862496
H         8.27537421105992    0.92997593712937    2.89703813084123
H         7.52575643119861    2.51233667619053    2.47281641424890
H         6.93134191421207    1.67807626378768    0.47630352044086
H         7.47641925320493    0.13979523774831    0.73470248526730
