26
 energy: -46.152077531115 gnorm: 0.217654008820 xtb: 6.4.1 (79825abcba525fcdf90b791dcacef51065a7a4e7)
C         3.57095332659593   -0.02962010756813    1.08599347400422
C         2.47204299470354    0.03356033341888    0.00238699118615
C         1.45758726961687   -1.07444854358454    0.23393255212460
C         0.48940830301336   -1.71685546276893    0.82552329686613
C         1.74114398213787    1.31477792814835    0.20540234927399
C         1.33473189343235    2.44235477710446    0.21630069206070
C         2.99050092176516   -0.06778842281457   -1.49855618952222
N         3.82433799113762    1.05268870158655   -1.96757070512862
C         5.13876434557817    0.83823316384989   -2.25844106754216
N         5.68465901695191   -0.31161770777793   -2.45585568873133
C         4.94283290431803   -1.45616384025561   -2.24117973838364
C         3.70676761529102   -1.40594652625866   -1.71110091751975
S         2.69101544879194   -2.80918628146103   -1.53022135057714
N         3.53350474494782   -4.03740555454715   -2.26292130861099
C         4.70948316610603   -3.87349355247064   -2.77015070914059
C         5.62877066294773   -2.70163905611814   -2.69606136924072
O         6.75120134045268   -2.68090846899707   -3.18634048026783
H         4.46353494661225    0.49672323405462    0.72438221918140
H         3.80211652739911   -1.05275137703590    1.40227794597139
H         3.27633739293156    0.54381017736935    1.97234501597176
H        -0.34635607268093   -2.35969920081049    0.98338863880615
H         0.83217353442388    3.37731455250006    0.34020194973322
H         2.08320273158055   -0.04066046417464   -2.11930802040392
H         3.30936250592025    1.92578990914165   -1.90298395656245
H         5.72724984479158    1.76046898090718   -2.40596519838416
H         5.14001512791346   -4.84967485302403   -3.04304758998370
