39
 energy: -52.273546705602 gnorm: 0.107443709694 xtb: 6.4.1 (79825abcba525fcdf90b791dcacef51065a7a4e7)
C         3.77664506462863    1.60657686631068    3.71132316564828
C         3.63109008188492    2.09455121113540    2.26398549988938
N         4.71393298964772    1.54601309685747    1.46609145023893
C         4.71717226199401    1.23132429244128    0.13235119720265
N         5.82302963206771    0.81571078585428   -0.41042062568726
C         5.58276960636031    0.31225842242481   -1.76157064524434
C         4.06883230180357    0.23725712652958   -1.90034448614711
C         3.47138188421860    1.06095882957988   -0.75868933410950
C         3.12085621552762    2.52027746569991   -1.17226750086300
N         2.52025926651280    3.34683893790976   -0.10509312324343
C         3.37502393883068    4.20094047882838    0.71243845242722
C         3.58329148136370    3.64591352386317    2.15033412775010
N         4.80055061187762    4.22933738486643    2.76350779102281
N         2.48277121116905    0.39722915008093    0.10186213144139
C         1.32713090288272   -0.10678290105146   -0.43121941590964
C         0.70977372252554    0.61655578250180   -1.60198143616496
N         0.60746767002215   -1.01891208167907    0.13168571357824
H         3.55656455817632    2.41165729976220    4.41747336949364
H         4.82313242902713    1.32286174500124    3.85620430095349
H         3.22389755042803    0.71888633197929    4.03426842628440
H         2.66463618668638    1.80976134839701    1.84113943294379
H         5.66386408320751    1.74731295679849    1.77284711790496
H         6.17422312652683   -0.58315959603565   -1.98790119830559
H         5.87698029732574    1.04147360252413   -2.51967669285030
H         3.66828738729558   -0.78221654903153   -1.84748183888918
H         3.81309454186272    0.73608506880592   -2.84385127614978
H         2.42468737009629    2.56222071460953   -2.01749324500534
H         4.03459313527907    2.97330646397193   -1.57740481940348
H         1.78849188417004    2.87450333869470    0.42318682597077
H         2.88384607160522    5.17768691512034    0.81902344137340
H         4.35295130311699    4.25817190460129    0.21764194418975
H         2.65298273432264    3.91247304788163    2.67015326560353
H         4.95458424933760    3.91081308762363    3.72329608724024
H         4.64276754464572    5.23484068194682    2.74222568679239
H         2.97624494504901   -0.31032306020570    0.63679126370882
H        -0.24455841023774    0.15973532711536   -1.85042595389636
H         1.30947672985062    0.68314133259719   -2.51436037478305
H         0.42102112962309    1.64431030965232   -1.35959529410916
H         0.97410760990834   -1.42976478815966    0.99180203924153
