36
 energy: -47.840250583122 gnorm: 0.150975659788 xtb: 6.4.1 (79825abcba525fcdf90b791dcacef51065a7a4e7)
C         1.84325576751858   -0.06050729682901    0.33984779475450
C         3.23094633516773    0.18375423578951   -0.29701941879187
C         3.29147473177167    1.67326891808040   -0.58061430416895
C         3.99156707415548    1.92374190452520    0.82513253905720
N         3.26540901891156    2.51267246436273    1.94333117838603
C         4.11880626136195    3.60676864326163    2.49304379327969
C         4.34676241386562    3.45626996149218    4.03400445981437
N         4.85475839538525    2.14935020910415    4.47965743736751
C         5.38538858451802    3.57747386129136    1.66882514064377
C         5.26210441359135    2.60826935688143    0.77278088550892
C         6.19175752520931    1.86029616791648   -0.07590305910779
C         5.87409747893435    0.42684100104876    0.41517472816687
C         4.35361906631662    0.44830680503799    0.92789952138298
C         4.12482453651022   -0.91647510026254    1.57857631871124
C         3.95992596122112   -1.81474599687099    0.34204490473922
O         3.76731286048526   -1.02475701230991   -0.85714281162259
H         1.17517244737301    0.07842150943394   -0.51703293403949
H         1.76044650338368    0.77531788034878    1.03612824215319
H         1.60512691717967   -1.04229747734586    0.77486788909545
H         2.27684505609239    2.04852778662482   -0.75241084271557
H         3.91337771419058    1.99040747918507   -1.42995980853169
H         2.34090283294463    2.86735549452614    1.68501807012875
H         3.58751558879511    4.56052808887228    2.43863904145456
H         3.40178627145481    3.63441410566236    4.55976836157422
H         5.02423099722524    4.17357962824139    4.51754339578832
H         5.85897860886692    2.06435937942327    4.31506180083735
H         4.49928329368936    1.30536613354848    4.02487592310210
H         6.20503714064461    4.25558520960547    1.84170367702620
H         7.26103330011806    2.10171960272995   -0.10215776823145
H         5.86964023446536    1.99319573538685   -1.11389026212978
H         6.48860658493445    0.14394447218512    1.28229780510378
H         6.13332815227631   -0.27433600905752   -0.38440284526095
H         3.25872154036333   -0.79467746348629    2.23482576887262
H         4.99306188351585   -1.23151243296503    2.17366928940926
H         3.16260722809838   -2.52717408382498    0.59167057719279
H         4.82414040004333   -2.44098820714813    0.11099266320268
