36
 energy: -47.843157315901 gnorm: 0.137905826435 xtb: 6.4.1 (79825abcba525fcdf90b791dcacef51065a7a4e7)
C         1.72039012089360    0.02312458898305    0.37700984556832
C         3.18449745389500    0.08666719417527   -0.11624537538083
C         3.48823120947964    1.50337760663381   -0.56726770216182
C         4.08362301188787    1.83310868974027    0.87001311972164
N         3.28051263994917    2.64908507218230    1.77207142499956
C         4.00831743656737    3.82292346979769    2.33768688408216
C         4.15503767688430    3.58170348183926    3.87699182338388
N         4.85745403795859    2.32688139903704    4.18801998247834
C         5.32452570886777    3.65140032961351    1.61477546173780
C         5.32581310955882    2.56938193048853    0.84882104699001
C         6.34259192263276    1.79650157348042    0.13272048603760
C         5.85614331956910    0.33615489533981    0.29889616262852
C         4.41353815960249    0.35243794890812    1.00162464778436
C         4.15869488831622   -0.93941362998619    1.77914075183856
C         4.06903913371026   -1.83590985432464    0.53360936426489
O         3.52286168177667   -1.20286139527581   -0.64967987275331
H         1.56126775348271    0.75268587606282    1.17844700612101
H         1.40820925184929   -0.97014872433697    0.70292209563541
H         1.07871463509174    0.23625988526122   -0.49056476530021
H         2.64450799901404    2.13163089561176   -0.87261271998116
H         4.32522463680100    1.62536241120979   -1.26961353050607
H         2.35501259143126    2.68709292495336    1.33705135696342
H         3.49145727389898    4.76547642689993    2.13935325514526
H         3.15373550740230    3.66898351372451    4.31393470304592
H         4.74453585660353    4.46123135508774    4.17064015944877
H         5.77497648012686    2.17776794963383    3.76530122588848
H         4.34281678842408    1.55383316917950    3.76018493830117
H         6.20989066579456    4.21534461356407    1.85899147184639
H         7.35312860142915    1.94713429845720    0.53077908961439
H         6.42751009229572    2.10245007780426   -0.91514577326987
H         6.42500368892169   -0.23215691315971    1.04921201908604
H         5.96191734999843   -0.13109236823033   -0.68531209343971
H         3.28926766752254   -0.85873395652573    2.43733487964709
H         4.94103966695360   -1.30520223190821    2.45837238363263
H         3.51505837154707   -2.77657924333062    0.65121179909366
H         5.08385144244168   -2.18061398487584    0.32440593024972
