36
 energy: -47.845488209562 gnorm: 0.124509398828 xtb: 6.4.1 (79825abcba525fcdf90b791dcacef51065a7a4e7)
C         1.72582063548724    0.05975150461446    0.41325665658916
C         3.13528913586772    0.27450793386374   -0.18526391662367
C         3.49800795000617    1.73170980314650   -0.40376219143099
C         4.25581614782077    1.76416118402024    0.99397304258457
N         3.50213416623911    2.28298566345002    2.12856438521268
C         4.01869022522077    3.63280902465939    2.50094049614210
C         4.10117960599679    3.71392106156186    4.06164224295541
N         4.62960267191483    2.44951173693345    4.59712691988195
C         5.38586335095328    3.55930172272193    1.86073768270785
C         5.49527038576570    2.50150760815259    1.06918645928095
C         6.48606921980749    1.79484618174752    0.25498101410461
C         5.86481630875725    0.41517547062190   -0.07275754157335
C         4.51279129599505    0.27853924159688    0.78080030345937
C         4.29835622726087   -1.13243322292686    1.32991884431515
C         3.77963257291366   -1.85626341008059    0.07688743800831
O         3.42477411074232   -0.90280172485183   -0.95472288768346
H         1.82199514502283    0.20613471962601    1.49455381183138
H         1.49501303576339   -0.98455687290726    0.19781425773850
H         0.97952827772382    0.80381696664869    0.09817873950451
H         2.66262922225115    2.41271906177255   -0.59914746880336
H         4.13305666531523    1.76811816862515   -1.30048707629221
H         2.49788827993583    2.10243500124701    2.05027612914274
H         3.37283789976127    4.41003582476419    2.08419116855782
H         3.10381218532499    3.96594972687994    4.43964052068164
H         4.82517869459277    4.51262706177918    4.27424697788133
H         5.60618358542341    2.40889817296065    4.30146891508139
H         4.18228468337188    1.68452625201968    4.08702721047706
H         6.18459025621357    4.26890909720214    2.00229481531681
H         7.43905569932658    1.63171415905405    0.77221400075714
H         6.60985732257455    2.26789764903898   -0.72468121694221
H         6.49938063910285   -0.46265272654262    0.11776827325888
H         5.48204222627258    0.39392149110446   -1.09804106252169
H         3.58908330189243   -1.25299658506339    2.15334388818778
H         5.23378119018577   -1.60119472959488    1.66527393977759
H         2.92730232628573   -2.49467810162898    0.34436407078449
H         4.57315003897651   -2.38665239550787   -0.45362984897445
