32
 energy: -49.315819554628 gnorm: 0.146654278920 xtb: 6.4.1 (79825abcba525fcdf90b791dcacef51065a7a4e7)
C         3.47704329283723   -1.41647849068449   -0.42946614181584
C         2.97675328140065   -0.16630948180808    0.28405291707919
C         2.97456998752066   -0.31255972962954    1.82993704746130
C         2.08387407403938   -1.46763970913967    2.37951476079928
N         2.25595305186672   -1.70020623222309    3.83156618321268
C         1.95959002322758   -3.04704619480028    4.29861270795180
C         3.57860864906921   -1.25175425330849    4.35820003666448
C         4.67508888382625   -1.42352294794886    3.27043459510381
O         4.37241618398543   -0.46423067959640    2.21737937884278
C         3.41325380983512    0.19929989726471    4.67302684293959
C         2.95444733717170    1.18786636686583    3.85333950368951
O         2.96208606416634    2.37984837754164    4.49979249972794
N         3.51624358239152    2.08243295956698    5.75728696098600
N         3.77304073890485    0.77665377706092    5.85213630932160
C         2.48038241376474    1.08674769476363    2.45195919527480
N         1.00977347765698    1.20482163832338    2.47805011139986
H         3.19990477476354   -1.19407990490839   -1.46590905714161
H         3.02659784131070   -2.34846576822616   -0.07976755055013
H         4.56166372935698   -1.54737152244660   -0.37242535385562
H         1.94407868519553    0.03006146821603   -0.02514036869580
H         3.67111952505263    0.67130772326238    0.14311324475906
H         2.43541076231770   -2.37884192287295    1.87731448442736
H         1.04558440406128   -1.28903684710943    2.07772096565034
H         1.29449439358423   -3.67549382741380    3.69438921111656
H         1.60405859128051   -2.83132892635638    5.31097724987127
H         2.86839963314850   -3.65484127114568    4.35610929526268
H         3.81561350055933   -1.67466538620773    5.34167733610141
H         4.70855486761217   -2.44035042242853    2.86348363385178
H         5.60019876734895   -1.07688131385434    3.74480853937262
H         2.97111617305370    1.88595960292620    1.88956546871390
H         0.70722631436447    0.60916055609459    3.25735962475436
H         0.68398085432331    0.74036734747556    1.63446834295494
