32
 energy: -49.307416455538 gnorm: 0.147567604718 xtb: 6.4.1 (79825abcba525fcdf90b791dcacef51065a7a4e7)
C         3.97603499166313   -1.44362237268808   -0.23360411779820
C         3.03728978453666   -0.36766754581988    0.29874983592877
C         2.92361721995076   -0.36137792193469    1.84735908718343
C         2.13814467454043   -1.60164520404127    2.37114773976304
N         2.18164807983525   -1.76306060172686    3.84227119101224
C         2.10849800138562   -3.18555999913216    4.14407562804077
C         3.40437791135011   -1.22785893273784    4.51037383632899
C         4.56466185402396   -1.28334742290711    3.47806126518872
O         4.29841715910198   -0.42846238293800    2.32955657139541
C         3.21654188076600    0.24013347404368    4.71465841909355
C         2.84296029858984    1.11792553016867    3.74019842953050
O         2.95530870642825    2.38011960808994    4.22292494834728
N         3.47839518361429    2.25470032237872    5.52195895310016
N         3.67072366111360    0.95941771658405    5.77740596532262
C         2.34482159157054    1.05516855568950    2.34493906509821
N         0.92954526810113    1.43756553168769    2.51250485061882
H         3.46489135719912   -2.41177488682593   -0.19008748692998
H         4.81083383308493   -1.49171594161960    0.46966567257087
H         4.34330948286130   -1.27159185808624   -1.24962728496094
H         1.99025191110855   -0.56596192114918    0.04385791709935
H         3.42856746001759    0.58950821914345   -0.06775716357243
H         2.55021291847390   -2.49488624821946    1.88289286462023
H         1.06618598649948   -1.48083679893176    2.17792813958062
H         2.32686988702211   -3.36438506372864    5.20366044098617
H         2.86016992900778   -3.84431429732643    3.69814896497857
H         1.16165714510136   -3.65445514956342    3.85722139773512
H         3.62948712764834   -1.75254919215551    5.44647141785683
H         4.70153384637385   -2.29708036636279    3.08527793298091
H         5.49637606650412   -0.84959315911455    3.85856779510696
H         2.85695702613078    1.91937469447560    1.91283833595226
H         0.57549717773964    0.79567802422859    3.23104545673692
H         0.28026969371944    1.35839147453474    1.73426227419451
