36
 energy: -51.092257040020 gnorm: 0.122116132743 xtb: 6.4.1 (79825abcba525fcdf90b791dcacef51065a7a4e7)
C         2.34239637720775    0.53286363987928   -1.21920307356294
C         3.41669856112765    0.13612296695088   -0.18802380204740
C         3.48483457552973   -1.39141996353007   -0.01024050294088
C         4.06383660420676   -2.04607927229122    1.24130975620228
C         3.72267380759601   -1.30215117847833    2.53453970406329
C         4.95447420957812   -0.54657404351811    3.05981488721779
C         5.36673169127858    0.51311884836390    2.01846636628115
C         4.21785359121178    1.51590708384922    1.78714565829871
C         3.03390195758939    0.73362534108749    1.18850434876161
C         2.63538455520584   -0.25843292950589    2.28481941031520
N         1.35834239518656   -0.92349661756104    2.04576781101041
N         6.46690448428538    1.26075091004486    2.62850431700200
C         7.28630192536863    1.87712999837770    1.74160788706073
N         7.41470701364624    1.46144688130736    0.47540603148172
S         8.76602218708950    2.22381252976512   -0.14281527991581
N         9.00176886007354    3.25428882015280    1.14974511375941
N         8.11195036700485    2.95187947680904    2.07754519574445
H         1.31534639102329    0.30309893467425   -0.91470461567134
H         2.51594351731422    0.04094250247321   -2.18308890526955
H         2.45630174869217    1.56381964636240   -1.56483976172557
H         4.39024783770694    0.58008193020737   -0.43889909662053
H         3.98109592660072   -1.95065532051938   -0.81481601285203
H         2.43173450239774   -1.70519928204785   -0.04370266789877
H         5.15974703838747   -2.06632017776557    1.17135833686237
H         3.70142243853561   -3.08406819184844    1.23195359514516
H         3.42912823077546   -2.02455468157153    3.31339842962348
H         5.77188606136585   -1.21839041125134    3.35311747768041
H         4.58063164767986   -0.03530581286756    3.95968121255002
H         5.69612527255237    0.02840502447774    1.09146039580331
H         4.53497034231312    2.28314435130084    1.06690655245839
H         3.97439501883707    1.99422050491693    2.74927335657932
H         2.11450925871228    1.33089251060541    1.10297751234611
H         2.55588889816738    0.45510905161261    3.11510600565684
H         0.54263941489675   -0.30965413336181    2.02357921910792
H         1.22635865516875   -1.53980046701790    2.84835385919208
H         6.19861631742585    1.85174164353372    3.41309013863251
